<?xml version="1.0" encoding="UTF-8"?>

<!-- generated on 2025-08-22 15:41:31 by Eclipse SUMO GUI Version 1.24.0
<sumoConfiguration xmlns:xsi="http://www.w3.org/2001/XMLSchema-instance" xsi:noNamespaceSchemaLocation="http://sumo.dlr.de/xsd/sumoConfiguration.xsd">

    <input>
        <net-file value="C:\Users\maame\TrafficFlowOptimization\CityGrid\traffic\../network/grid.net.xml"/>
        <route-files value="C:\Users\maame\TrafficFlowOptimization\CityGrid\traffic\grid.rou.xml"/>
    </input>

    <output>
        <tripinfo-output value="C:\Users\maame\TrafficFlowOptimization\CityGrid\traffic\tripinfo.xml"/>
    </output>

    <time>
        <begin value="0"/>
        <end value="1800"/>
    </time>

    <report>
        <verbose value="true"/>
        <no-step-log value="true"/>
    </report>

    <traci_server>
        <remote-port value="57161"/>
    </traci_server>

    <gui_only>
        <gui-settings-file value="C:\Users\maame\TrafficFlowOptimization\CityGrid\traffic\gui_settings.xml"/>
    </gui_only>

</sumoConfiguration>
-->

<tripinfos xmlns:xsi="http://www.w3.org/2001/XMLSchema-instance" xsi:noNamespaceSchemaLocation="http://sumo.dlr.de/xsd/tripinfo_file.xsd">
    <tripinfo id="flow_W1_E1.0" depart="0.00" departLane="entry_W1_0" departPos="5.10" departSpeed="0.00" departDelay="0.00" arrival="62.00" arrivalLane="exit_E1_0" arrivalPos="189.60" arrivalSpeed="14.16" duration="62.00" routeLength="594.90" waitingTime="13.00" waitingCount="1" stopTime="0.00" timeLoss="21.14" rerouteNo="0" devices="tripinfo_flow_W1_E1.0" vType="car" speedFactor="1.06" vaporized=""/>
    <tripinfo id="flow_E2_W2.0" depart="0.00" departLane="entry_E2_0" departPos="5.10" departSpeed="0.00" departDelay="0.00" arrival="63.00" arrivalLane="exit_W2_0" arrivalPos="189.60" arrivalSpeed="13.93" duration="63.00" routeLength="594.90" waitingTime="9.00" waitingCount="1" stopTime="0.00" timeLoss="20.12" rerouteNo="0" devices="tripinfo_flow_E2_W2.0" vType="car" speedFactor="1.01" vaporized=""/>
    <tripinfo id="flow_W1_E1.1" depart="4.00" departLane="entry_W1_0" departPos="5.10" departSpeed="0.00" departDelay="0.00" arrival="63.00" arrivalLane="exit_E1_1" arrivalPos="189.60" arrivalSpeed="13.89" duration="59.00" routeLength="594.90" waitingTime="7.00" waitingCount="1" stopTime="0.00" timeLoss="17.36" rerouteNo="0" devices="tripinfo_flow_W1_E1.1" vType="car" speedFactor="1.03" vaporized=""/>
    <tripinfo id="flow_E2_W2.1" depart="7.00" departLane="entry_E2_0" departPos="5.10" departSpeed="0.00" departDelay="0.00" arrival="64.00" arrivalLane="exit_W2_1" arrivalPos="189.60" arrivalSpeed="10.63" duration="57.00" routeLength="594.90" waitingTime="0.00" waitingCount="0" stopTime="0.00" timeLoss="5.45" rerouteNo="0" devices="tripinfo_flow_E2_W2.1" vType="car" speedFactor="0.83" vaporized=""/>
    <tripinfo id="flow_W1_E1.2" depart="8.00" departLane="entry_W1_0" departPos="5.10" departSpeed="0.00" departDelay="0.00" arrival="64.00" arrivalLane="exit_E1_0" arrivalPos="189.60" arrivalSpeed="14.03" duration="56.00" routeLength="594.90" waitingTime="6.00" waitingCount="1" stopTime="0.00" timeLoss="14.71" rerouteNo="0" devices="tripinfo_flow_W1_E1.2" vType="car" speedFactor="1.05" vaporized=""/>
    <tripinfo id="flow_left_turn.0" depart="4.00" departLane="entry_N1_0" departPos="5.10" departSpeed="0.00" departDelay="4.00" arrival="80.00" arrivalLane="exit_W2_0" arrivalPos="189.60" arrivalSpeed="14.27" duration="76.00" routeLength="583.13" waitingTime="11.00" waitingCount="2" stopTime="0.00" timeLoss="36.16" rerouteNo="0" devices="tripinfo_flow_left_turn.0" vType="car" speedFactor="1.08" vaporized=""/>
    <tripinfo id="flow_N1_S1.0" depart="0.00" departLane="entry_N1_0" departPos="7.60" departSpeed="0.00" departDelay="0.00" arrival="81.00" arrivalLane="exit_S1_1" arrivalPos="189.60" arrivalSpeed="12.51" duration="81.00" routeLength="592.40" waitingTime="11.00" waitingCount="2" stopTime="0.00" timeLoss="35.42" rerouteNo="0" devices="tripinfo_flow_N1_S1.0" vType="truck" speedFactor="0.94" vaporized=""/>
    <tripinfo id="flow_N1_S1.1" depart="10.00" departLane="entry_N1_0" departPos="7.60" departSpeed="0.00" departDelay="0.00" arrival="82.00" arrivalLane="exit_S1_0" arrivalPos="189.60" arrivalSpeed="11.65" duration="72.00" routeLength="592.40" waitingTime="10.00" waitingCount="1" stopTime="0.00" timeLoss="22.94" rerouteNo="0" devices="tripinfo_flow_N1_S1.1" vType="truck" speedFactor="0.89" vaporized=""/>
    <tripinfo id="flow_N1_S1.2" depart="20.00" departLane="entry_N1_0" departPos="7.60" departSpeed="0.00" departDelay="0.00" arrival="83.00" arrivalLane="exit_S1_1" arrivalPos="189.60" arrivalSpeed="14.44" duration="63.00" routeLength="592.40" waitingTime="5.00" waitingCount="1" stopTime="0.00" timeLoss="23.09" rerouteNo="0" devices="tripinfo_flow_N1_S1.2" vType="truck" speedFactor="1.12" vaporized=""/>
    <tripinfo id="flow_left_turn.1" depart="14.00" departLane="entry_N1_0" departPos="5.10" departSpeed="0.00" departDelay="2.00" arrival="86.00" arrivalLane="exit_W2_0" arrivalPos="189.60" arrivalSpeed="11.22" duration="72.00" routeLength="583.13" waitingTime="6.00" waitingCount="1" stopTime="0.00" timeLoss="21.64" rerouteNo="0" devices="tripinfo_flow_left_turn.1" vType="car" speedFactor="0.86" vaporized=""/>
    <tripinfo id="flow_left_turn.2" depart="24.00" departLane="entry_N1_0" departPos="5.10" departSpeed="0.00" departDelay="0.00" arrival="88.00" arrivalLane="exit_W2_0" arrivalPos="189.60" arrivalSpeed="11.08" duration="64.00" routeLength="583.13" waitingTime="2.00" waitingCount="1" stopTime="0.00" timeLoss="15.02" rerouteNo="0" devices="tripinfo_flow_left_turn.2" vType="car" speedFactor="0.88" vaporized=""/>
    <tripinfo id="flow_E2_W2.2" depart="14.00" departLane="entry_E2_0" departPos="5.10" departSpeed="0.00" departDelay="0.00" arrival="92.00" arrivalLane="exit_W2_0" arrivalPos="189.60" arrivalSpeed="14.53" duration="78.00" routeLength="594.90" waitingTime="22.00" waitingCount="2" stopTime="0.00" timeLoss="38.08" rerouteNo="0" devices="tripinfo_flow_E2_W2.2" vType="car" speedFactor="1.09" vaporized=""/>
    <tripinfo id="flow_W1_E1.4" depart="16.00" departLane="entry_W1_0" departPos="5.10" departSpeed="0.00" departDelay="0.00" arrival="93.00" arrivalLane="exit_E1_1" arrivalPos="189.60" arrivalSpeed="13.95" duration="77.00" routeLength="594.90" waitingTime="20.00" waitingCount="2" stopTime="0.00" timeLoss="35.08" rerouteNo="0" devices="tripinfo_flow_W1_E1.4" vType="car" speedFactor="1.03" vaporized=""/>
    <tripinfo id="flow_W1_E1.3" depart="12.00" departLane="entry_W1_0" departPos="5.10" departSpeed="0.00" departDelay="0.00" arrival="94.00" arrivalLane="exit_E1_0" arrivalPos="189.60" arrivalSpeed="13.02" duration="82.00" routeLength="594.90" waitingTime="22.00" waitingCount="2" stopTime="0.00" timeLoss="36.29" rerouteNo="0" devices="tripinfo_flow_W1_E1.3" vType="car" speedFactor="0.94" vaporized=""/>
    <tripinfo id="flow_E2_W2.3" depart="21.00" departLane="entry_E2_0" departPos="5.10" departSpeed="0.00" departDelay="0.00" arrival="94.00" arrivalLane="exit_W2_0" arrivalPos="189.60" arrivalSpeed="13.47" duration="73.00" routeLength="594.90" waitingTime="13.00" waitingCount="2" stopTime="0.00" timeLoss="28.93" rerouteNo="0" devices="tripinfo_flow_E2_W2.3" vType="car" speedFactor="0.99" vaporized=""/>
    <tripinfo id="flow_E2_W2.5" depart="35.00" departLane="entry_E2_0" departPos="5.10" departSpeed="0.00" departDelay="0.00" arrival="95.00" arrivalLane="exit_W2_0" arrivalPos="189.60" arrivalSpeed="13.13" duration="60.00" routeLength="594.90" waitingTime="6.00" waitingCount="1" stopTime="0.00" timeLoss="17.38" rerouteNo="0" devices="tripinfo_flow_E2_W2.5" vType="car" speedFactor="1.01" vaporized=""/>
    <tripinfo id="flow_W1_E1.5" depart="20.00" departLane="entry_W1_0" departPos="5.10" departSpeed="0.00" departDelay="0.00" arrival="96.00" arrivalLane="exit_E1_0" arrivalPos="189.60" arrivalSpeed="13.72" duration="76.00" routeLength="594.90" waitingTime="14.00" waitingCount="2" stopTime="0.00" timeLoss="34.68" rerouteNo="0" devices="tripinfo_flow_W1_E1.5" vType="car" speedFactor="1.05" vaporized=""/>
    <tripinfo id="flow_W1_E1.6" depart="24.00" departLane="entry_W1_0" departPos="5.10" departSpeed="0.00" departDelay="0.00" arrival="96.00" arrivalLane="exit_E1_1" arrivalPos="189.60" arrivalSpeed="11.75" duration="72.00" routeLength="594.90" waitingTime="9.00" waitingCount="2" stopTime="0.00" timeLoss="25.78" rerouteNo="0" devices="tripinfo_flow_W1_E1.6" vType="car" speedFactor="0.93" vaporized=""/>
    <tripinfo id="flow_E2_W2.4" depart="28.00" departLane="entry_E2_0" departPos="5.10" departSpeed="0.00" departDelay="0.00" arrival="96.00" arrivalLane="exit_W2_1" arrivalPos="189.60" arrivalSpeed="12.28" duration="68.00" routeLength="594.90" waitingTime="9.00" waitingCount="1" stopTime="0.00" timeLoss="22.02" rerouteNo="0" devices="tripinfo_flow_E2_W2.4" vType="car" speedFactor="0.94" vaporized=""/>
    <tripinfo id="flow_W1_E1.7" depart="28.00" departLane="entry_W1_0" departPos="5.10" departSpeed="0.00" departDelay="0.00" arrival="98.00" arrivalLane="exit_E1_0" arrivalPos="189.60" arrivalSpeed="12.80" duration="70.00" routeLength="594.90" waitingTime="8.00" waitingCount="1" stopTime="0.00" timeLoss="24.36" rerouteNo="0" devices="tripinfo_flow_W1_E1.7" vType="car" speedFactor="0.94" vaporized=""/>
    <tripinfo id="flow_W1_E1.8" depart="32.00" departLane="entry_W1_0" departPos="5.10" departSpeed="0.00" departDelay="0.00" arrival="98.00" arrivalLane="exit_E1_1" arrivalPos="189.60" arrivalSpeed="13.86" duration="66.00" routeLength="594.90" waitingTime="7.00" waitingCount="1" stopTime="0.00" timeLoss="23.42" rerouteNo="0" devices="tripinfo_flow_W1_E1.8" vType="car" speedFactor="1.02" vaporized=""/>
    <tripinfo id="flow_W1_E1.9" depart="36.00" departLane="entry_W1_0" departPos="5.10" departSpeed="0.00" departDelay="0.00" arrival="100.00" arrivalLane="exit_E1_0" arrivalPos="189.60" arrivalSpeed="12.69" duration="64.00" routeLength="594.90" waitingTime="6.00" waitingCount="1" stopTime="0.00" timeLoss="19.66" rerouteNo="0" devices="tripinfo_flow_W1_E1.9" vType="car" speedFactor="0.97" vaporized=""/>
    <tripinfo id="flow_N1_S1.3" depart="30.00" departLane="entry_N1_0" departPos="7.60" departSpeed="0.00" departDelay="0.00" arrival="110.00" arrivalLane="exit_S1_0" arrivalPos="189.60" arrivalSpeed="14.82" duration="80.00" routeLength="592.40" waitingTime="16.00" waitingCount="2" stopTime="0.00" timeLoss="39.88" rerouteNo="0" devices="tripinfo_flow_N1_S1.3" vType="truck" speedFactor="1.16" vaporized=""/>
    <tripinfo id="flow_N1_S1.4" depart="40.00" departLane="entry_N1_0" departPos="7.60" departSpeed="0.00" departDelay="0.00" arrival="112.00" arrivalLane="exit_S1_0" arrivalPos="189.60" arrivalSpeed="11.60" duration="72.00" routeLength="592.40" waitingTime="10.00" waitingCount="1" stopTime="0.00" timeLoss="22.97" rerouteNo="0" devices="tripinfo_flow_N1_S1.4" vType="truck" speedFactor="0.87" vaporized=""/>
    <tripinfo id="flow_left_turn.3" depart="36.00" departLane="entry_N1_0" departPos="5.10" departSpeed="0.00" departDelay="0.00" arrival="113.00" arrivalLane="exit_W2_0" arrivalPos="189.60" arrivalSpeed="11.72" duration="77.00" routeLength="583.13" waitingTime="9.00" waitingCount="2" stopTime="0.00" timeLoss="29.18" rerouteNo="0" devices="tripinfo_flow_left_turn.3" vType="car" speedFactor="0.89" vaporized=""/>
    <tripinfo id="flow_N1_S1.5" depart="51.00" departLane="entry_N1_0" departPos="7.60" departSpeed="0.00" departDelay="1.00" arrival="113.00" arrivalLane="exit_S1_1" arrivalPos="189.60" arrivalSpeed="14.58" duration="62.00" routeLength="592.40" waitingTime="5.00" waitingCount="1" stopTime="0.00" timeLoss="22.01" rerouteNo="0" devices="tripinfo_flow_N1_S1.5" vType="truck" speedFactor="1.15" vaporized=""/>
    <tripinfo id="flow_left_turn.4" depart="48.00" departLane="entry_N1_0" departPos="5.10" departSpeed="0.00" departDelay="0.00" arrival="115.00" arrivalLane="exit_W2_0" arrivalPos="189.60" arrivalSpeed="12.12" duration="67.00" routeLength="583.13" waitingTime="4.00" waitingCount="1" stopTime="0.00" timeLoss="20.81" rerouteNo="0" devices="tripinfo_flow_left_turn.4" vType="car" speedFactor="0.93" vaporized=""/>
    <tripinfo id="flow_E2_W2.7" depart="49.00" departLane="entry_E2_0" departPos="5.10" departSpeed="0.00" departDelay="0.00" arrival="121.00" arrivalLane="exit_W2_0" arrivalPos="189.60" arrivalSpeed="16.06" duration="72.00" routeLength="594.90" waitingTime="18.00" waitingCount="2" stopTime="0.00" timeLoss="35.42" rerouteNo="0" devices="tripinfo_flow_E2_W2.7" vType="car" speedFactor="1.18" vaporized=""/>
    <tripinfo id="flow_W1_E1.13" depart="52.00" departLane="entry_W1_0" departPos="5.10" departSpeed="0.00" departDelay="0.00" arrival="123.00" arrivalLane="exit_E1_0" arrivalPos="189.60" arrivalSpeed="13.48" duration="71.00" routeLength="594.90" waitingTime="12.00" waitingCount="2" stopTime="0.00" timeLoss="27.56" rerouteNo="0" devices="tripinfo_flow_W1_E1.13" vType="car" speedFactor="1.01" vaporized=""/>
    <tripinfo id="flow_W1_E1.11" depart="44.00" departLane="entry_W1_0" departPos="5.10" departSpeed="0.00" departDelay="0.00" arrival="124.00" arrivalLane="exit_E1_0" arrivalPos="189.60" arrivalSpeed="12.94" duration="80.00" routeLength="594.90" waitingTime="18.00" waitingCount="2" stopTime="0.00" timeLoss="34.55" rerouteNo="0" devices="tripinfo_flow_W1_E1.11" vType="car" speedFactor="0.95" vaporized=""/>
    <tripinfo id="flow_E2_W2.9" depart="63.00" departLane="entry_E2_0" departPos="5.10" departSpeed="0.00" departDelay="0.00" arrival="124.00" arrivalLane="exit_W2_1" arrivalPos="189.60" arrivalSpeed="15.31" duration="61.00" routeLength="594.90" waitingTime="9.00" waitingCount="1" stopTime="0.00" timeLoss="21.57" rerouteNo="0" devices="tripinfo_flow_E2_W2.9" vType="car" speedFactor="1.10" vaporized=""/>
    <tripinfo id="flow_E2_W2.6" depart="42.00" departLane="entry_E2_0" departPos="5.10" departSpeed="0.00" departDelay="0.00" arrival="125.00" arrivalLane="exit_W2_0" arrivalPos="189.60" arrivalSpeed="11.51" duration="83.00" routeLength="594.90" waitingTime="21.00" waitingCount="2" stopTime="0.00" timeLoss="35.41" rerouteNo="0" devices="tripinfo_flow_E2_W2.6" vType="car" speedFactor="0.92" vaporized=""/>
    <tripinfo id="flow_W1_E1.15" depart="60.00" departLane="entry_W1_0" departPos="5.10" departSpeed="0.00" departDelay="0.00" arrival="125.00" arrivalLane="exit_E1_1" arrivalPos="189.60" arrivalSpeed="14.08" duration="65.00" routeLength="594.90" waitingTime="7.00" waitingCount="1" stopTime="0.00" timeLoss="22.64" rerouteNo="0" devices="tripinfo_flow_W1_E1.15" vType="car" speedFactor="1.02" vaporized=""/>
    <tripinfo id="flow_E2_W2.10" depart="70.00" departLane="entry_E2_0" departPos="5.10" departSpeed="0.00" departDelay="0.00" arrival="126.00" arrivalLane="exit_W2_0" arrivalPos="189.60" arrivalSpeed="14.65" duration="56.00" routeLength="594.90" waitingTime="2.00" waitingCount="1" stopTime="0.00" timeLoss="16.40" rerouteNo="0" devices="tripinfo_flow_E2_W2.10" vType="car" speedFactor="1.09" vaporized=""/>
    <tripinfo id="flow_W1_E1.17" depart="68.00" departLane="entry_W1_0" departPos="5.10" departSpeed="0.00" departDelay="0.00" arrival="127.00" arrivalLane="exit_E1_1" arrivalPos="189.60" arrivalSpeed="14.17" duration="59.00" routeLength="594.90" waitingTime="6.00" waitingCount="1" stopTime="0.00" timeLoss="17.02" rerouteNo="0" devices="tripinfo_flow_W1_E1.17" vType="car" speedFactor="1.03" vaporized=""/>
    <tripinfo id="flow_W1_E1.10" depart="40.00" departLane="entry_W1_0" departPos="5.10" departSpeed="0.00" departDelay="0.00" arrival="128.00" arrivalLane="exit_E1_0" arrivalPos="189.60" arrivalSpeed="10.68" duration="88.00" routeLength="594.90" waitingTime="22.00" waitingCount="2" stopTime="0.00" timeLoss="35.73" rerouteNo="0" devices="tripinfo_flow_W1_E1.10" vType="car" speedFactor="0.83" vaporized=""/>
    <tripinfo id="flow_E2_W2.8" depart="56.00" departLane="entry_E2_0" departPos="5.10" departSpeed="0.00" departDelay="0.00" arrival="128.00" arrivalLane="exit_W2_0" arrivalPos="189.60" arrivalSpeed="13.27" duration="72.00" routeLength="594.90" waitingTime="9.00" waitingCount="1" stopTime="0.00" timeLoss="28.42" rerouteNo="0" devices="tripinfo_flow_E2_W2.8" vType="car" speedFactor="0.99" vaporized=""/>
    <tripinfo id="flow_W1_E1.12" depart="48.00" departLane="entry_W1_0" departPos="5.10" departSpeed="0.00" departDelay="0.00" arrival="130.00" arrivalLane="exit_E1_0" arrivalPos="189.60" arrivalSpeed="15.17" duration="82.00" routeLength="594.90" waitingTime="15.00" waitingCount="2" stopTime="0.00" timeLoss="43.34" rerouteNo="0" devices="tripinfo_flow_W1_E1.12" vType="car" speedFactor="1.13" vaporized=""/>
    <tripinfo id="flow_W1_E1.14" depart="56.00" departLane="entry_W1_0" departPos="5.10" departSpeed="0.00" departDelay="0.00" arrival="131.00" arrivalLane="exit_E1_0" arrivalPos="189.60" arrivalSpeed="14.12" duration="75.00" routeLength="594.90" waitingTime="8.00" waitingCount="2" stopTime="0.00" timeLoss="38.40" rerouteNo="0" devices="tripinfo_flow_W1_E1.14" vType="car" speedFactor="1.17" vaporized=""/>
    <tripinfo id="flow_W1_E1.16" depart="64.00" departLane="entry_W1_0" departPos="5.10" departSpeed="0.00" departDelay="0.00" arrival="131.00" arrivalLane="exit_E1_1" arrivalPos="189.60" arrivalSpeed="11.21" duration="67.00" routeLength="594.90" waitingTime="5.00" waitingCount="1" stopTime="0.00" timeLoss="19.06" rerouteNo="0" devices="tripinfo_flow_W1_E1.16" vType="car" speedFactor="0.90" vaporized=""/>
    <tripinfo id="flow_W1_E1.18" depart="72.00" departLane="entry_W1_0" departPos="5.10" departSpeed="0.00" departDelay="0.00" arrival="133.00" arrivalLane="exit_E1_0" arrivalPos="189.60" arrivalSpeed="13.17" duration="61.00" routeLength="594.90" waitingTime="3.00" waitingCount="1" stopTime="0.00" timeLoss="19.47" rerouteNo="0" devices="tripinfo_flow_W1_E1.18" vType="car" speedFactor="1.04" vaporized=""/>
    <tripinfo id="flow_left_turn.5" depart="64.00" departLane="entry_N1_0" departPos="5.10" departSpeed="0.00" departDelay="4.00" arrival="140.00" arrivalLane="exit_W2_0" arrivalPos="189.60" arrivalSpeed="15.73" duration="76.00" routeLength="583.13" waitingTime="12.00" waitingCount="2" stopTime="0.00" timeLoss="39.19" rerouteNo="0" devices="tripinfo_flow_left_turn.5" vType="car" speedFactor="1.18" vaporized=""/>
    <tripinfo id="flow_N1_S1.6" depart="60.00" departLane="entry_N1_0" departPos="7.60" departSpeed="0.00" departDelay="0.00" arrival="141.00" arrivalLane="exit_S1_0" arrivalPos="189.60" arrivalSpeed="12.81" duration="81.00" routeLength="592.40" waitingTime="14.00" waitingCount="2" stopTime="0.00" timeLoss="37.07" rerouteNo="0" devices="tripinfo_flow_N1_S1.6" vType="truck" speedFactor="0.97" vaporized=""/>
    <tripinfo id="flow_N1_S1.7" depart="70.00" departLane="entry_N1_0" departPos="7.60" departSpeed="0.00" departDelay="0.00" arrival="142.00" arrivalLane="exit_S1_0" arrivalPos="189.60" arrivalSpeed="12.73" duration="72.00" routeLength="592.40" waitingTime="12.00" waitingCount="1" stopTime="0.00" timeLoss="26.76" rerouteNo="0" devices="tripinfo_flow_N1_S1.7" vType="truck" speedFactor="0.96" vaporized=""/>
    <tripinfo id="flow_left_turn.6" depart="74.00" departLane="entry_N1_0" departPos="5.10" departSpeed="0.00" departDelay="2.00" arrival="143.00" arrivalLane="exit_W2_0" arrivalPos="189.60" arrivalSpeed="13.22" duration="69.00" routeLength="583.13" waitingTime="5.00" waitingCount="1" stopTime="0.00" timeLoss="28.18" rerouteNo="0" devices="tripinfo_flow_left_turn.6" vType="car" speedFactor="1.04" vaporized=""/>
    <tripinfo id="flow_N1_S1.8" depart="80.00" departLane="entry_N1_0" departPos="7.60" departSpeed="0.00" departDelay="0.00" arrival="145.00" arrivalLane="exit_S1_1" arrivalPos="189.60" arrivalSpeed="11.52" duration="65.00" routeLength="592.40" waitingTime="0.00" waitingCount="0" stopTime="0.00" timeLoss="15.76" rerouteNo="0" devices="tripinfo_flow_N1_S1.8" vType="truck" speedFactor="0.88" vaporized=""/>
    <tripinfo id="flow_left_turn.7" depart="84.00" departLane="entry_N1_0" departPos="5.10" departSpeed="0.00" departDelay="0.00" arrival="145.00" arrivalLane="exit_W2_0" arrivalPos="189.60" arrivalSpeed="15.71" duration="61.00" routeLength="583.13" waitingTime="2.00" waitingCount="1" stopTime="0.00" timeLoss="24.07" rerouteNo="0" devices="tripinfo_flow_left_turn.7" vType="car" speedFactor="1.17" vaporized=""/>
    <tripinfo id="flow_W1_E1.19" depart="76.00" departLane="entry_W1_0" departPos="5.10" departSpeed="0.00" departDelay="0.00" arrival="152.00" arrivalLane="exit_E1_0" arrivalPos="189.60" arrivalSpeed="13.90" duration="76.00" routeLength="594.90" waitingTime="19.00" waitingCount="2" stopTime="0.00" timeLoss="36.25" rerouteNo="0" devices="tripinfo_flow_W1_E1.19" vType="car" speedFactor="1.09" vaporized=""/>
    <tripinfo id="flow_E2_W2.11" depart="77.00" departLane="entry_E2_0" departPos="5.10" departSpeed="0.00" departDelay="0.00" arrival="154.00" arrivalLane="exit_W2_0" arrivalPos="189.60" arrivalSpeed="12.71" duration="77.00" routeLength="594.90" waitingTime="16.00" waitingCount="2" stopTime="0.00" timeLoss="33.20" rerouteNo="0" devices="tripinfo_flow_E2_W2.11" vType="car" speedFactor="1.00" vaporized=""/>
    <tripinfo id="flow_W1_E1.20" depart="80.00" departLane="entry_W1_0" departPos="5.10" departSpeed="0.00" departDelay="0.00" arrival="155.00" arrivalLane="exit_E1_0" arrivalPos="189.60" arrivalSpeed="11.34" duration="75.00" routeLength="594.90" waitingTime="14.00" waitingCount="2" stopTime="0.00" timeLoss="27.44" rerouteNo="0" devices="tripinfo_flow_W1_E1.20" vType="car" speedFactor="0.90" vaporized=""/>
    <tripinfo id="flow_W1_E1.22" depart="88.00" departLane="entry_W1_0" departPos="5.10" departSpeed="0.00" departDelay="0.00" arrival="155.00" arrivalLane="exit_E1_1" arrivalPos="189.60" arrivalSpeed="13.14" duration="67.00" routeLength="594.90" waitingTime="7.00" waitingCount="1" stopTime="0.00" timeLoss="24.83" rerouteNo="0" devices="tripinfo_flow_W1_E1.22" vType="car" speedFactor="1.02" vaporized=""/>
    <tripinfo id="flow_E2_W2.12" depart="84.00" departLane="entry_E2_0" departPos="5.10" departSpeed="0.00" departDelay="0.00" arrival="156.00" arrivalLane="exit_W2_1" arrivalPos="189.60" arrivalSpeed="11.10" duration="72.00" routeLength="594.90" waitingTime="7.00" waitingCount="1" stopTime="0.00" timeLoss="21.17" rerouteNo="0" devices="tripinfo_flow_E2_W2.12" vType="car" speedFactor="0.85" vaporized=""/>
    <tripinfo id="flow_E2_W2.14" depart="98.00" departLane="entry_E2_0" departPos="5.10" departSpeed="0.00" departDelay="0.00" arrival="156.00" arrivalLane="exit_W2_0" arrivalPos="189.60" arrivalSpeed="13.21" duration="58.00" routeLength="594.90" waitingTime="4.00" waitingCount="1" stopTime="0.00" timeLoss="15.35" rerouteNo="0" devices="tripinfo_flow_E2_W2.14" vType="car" speedFactor="1.02" vaporized=""/>
    <tripinfo id="flow_E2_W2.13" depart="91.00" departLane="entry_E2_0" departPos="5.10" departSpeed="0.00" departDelay="0.00" arrival="157.00" arrivalLane="exit_W2_1" arrivalPos="189.60" arrivalSpeed="12.68" duration="66.00" routeLength="594.90" waitingTime="7.00" waitingCount="1" stopTime="0.00" timeLoss="23.22" rerouteNo="0" devices="tripinfo_flow_E2_W2.13" vType="car" speedFactor="1.00" vaporized=""/>
    <tripinfo id="flow_W1_E1.23" depart="92.00" departLane="entry_W1_0" departPos="5.10" departSpeed="0.00" departDelay="0.00" arrival="157.00" arrivalLane="exit_E1_1" arrivalPos="189.60" arrivalSpeed="12.71" duration="65.00" routeLength="594.90" waitingTime="7.00" waitingCount="1" stopTime="0.00" timeLoss="21.98" rerouteNo="0" devices="tripinfo_flow_W1_E1.23" vType="car" speedFactor="1.00" vaporized=""/>
    <tripinfo id="flow_W1_E1.21" depart="84.00" departLane="entry_W1_0" departPos="5.10" departSpeed="0.00" departDelay="0.00" arrival="158.00" arrivalLane="exit_E1_0" arrivalPos="189.60" arrivalSpeed="11.23" duration="74.00" routeLength="594.90" waitingTime="7.00" waitingCount="2" stopTime="0.00" timeLoss="23.15" rerouteNo="0" devices="tripinfo_flow_W1_E1.21" vType="car" speedFactor="0.85" vaporized=""/>
    <tripinfo id="flow_W1_E1.25" depart="100.00" departLane="entry_W1_0" departPos="5.10" departSpeed="0.00" departDelay="0.00" arrival="159.00" arrivalLane="exit_E1_1" arrivalPos="189.60" arrivalSpeed="13.12" duration="59.00" routeLength="594.90" waitingTime="3.00" waitingCount="1" stopTime="0.00" timeLoss="14.82" rerouteNo="0" devices="tripinfo_flow_W1_E1.25" vType="car" speedFactor="0.97" vaporized=""/>
    <tripinfo id="flow_W1_E1.24" depart="96.00" departLane="entry_W1_0" departPos="5.10" departSpeed="0.00" departDelay="0.00" arrival="160.00" arrivalLane="exit_E1_0" arrivalPos="189.60" arrivalSpeed="11.78" duration="64.00" routeLength="594.90" waitingTime="4.00" waitingCount="1" stopTime="0.00" timeLoss="15.70" rerouteNo="0" devices="tripinfo_flow_W1_E1.24" vType="car" speedFactor="0.90" vaporized=""/>
    <tripinfo id="flow_N1_S1.10" depart="100.00" departLane="entry_N1_0" departPos="7.60" departSpeed="0.00" departDelay="0.00" arrival="169.00" arrivalLane="exit_S1_1" arrivalPos="189.60" arrivalSpeed="14.84" duration="69.00" routeLength="592.40" waitingTime="13.00" waitingCount="1" stopTime="0.00" timeLoss="29.09" rerouteNo="0" devices="tripinfo_flow_N1_S1.10" vType="truck" speedFactor="1.08" vaporized=""/>
    <tripinfo id="flow_N1_S1.9" depart="90.00" departLane="entry_N1_0" departPos="7.60" departSpeed="0.00" departDelay="0.00" arrival="170.00" arrivalLane="exit_S1_0" arrivalPos="189.60" arrivalSpeed="14.76" duration="80.00" routeLength="592.40" waitingTime="15.00" waitingCount="2" stopTime="0.00" timeLoss="40.21" rerouteNo="0" devices="tripinfo_flow_N1_S1.9" vType="truck" speedFactor="1.10" vaporized=""/>
    <tripinfo id="flow_left_turn.8" depart="96.00" departLane="entry_N1_0" departPos="5.10" departSpeed="0.00" departDelay="0.00" arrival="170.00" arrivalLane="exit_W2_0" arrivalPos="189.60" arrivalSpeed="15.27" duration="74.00" routeLength="583.13" waitingTime="12.00" waitingCount="2" stopTime="0.00" timeLoss="36.04" rerouteNo="0" devices="tripinfo_flow_left_turn.8" vType="car" speedFactor="1.14" vaporized=""/>
    <tripinfo id="flow_left_turn.9" depart="108.00" departLane="entry_N1_0" departPos="5.10" departSpeed="0.00" departDelay="0.00" arrival="175.00" arrivalLane="exit_W2_0" arrivalPos="189.60" arrivalSpeed="12.31" duration="67.00" routeLength="583.13" waitingTime="6.00" waitingCount="1" stopTime="0.00" timeLoss="20.80" rerouteNo="0" devices="tripinfo_flow_left_turn.9" vType="car" speedFactor="0.94" vaporized=""/>
    <tripinfo id="flow_N1_S1.11" depart="111.00" departLane="entry_N1_0" departPos="7.60" departSpeed="0.00" departDelay="1.00" arrival="175.00" arrivalLane="exit_S1_1" arrivalPos="189.60" arrivalSpeed="11.77" duration="64.00" routeLength="592.40" waitingTime="0.00" waitingCount="0" stopTime="0.00" timeLoss="14.97" rerouteNo="0" devices="tripinfo_flow_N1_S1.11" vType="truck" speedFactor="0.88" vaporized=""/>
    <tripinfo id="flow_W1_E1.26" depart="104.00" departLane="entry_W1_0" departPos="5.10" departSpeed="0.00" departDelay="0.00" arrival="182.00" arrivalLane="exit_E1_0" arrivalPos="189.60" arrivalSpeed="14.40" duration="78.00" routeLength="594.90" waitingTime="22.00" waitingCount="2" stopTime="0.00" timeLoss="39.31" rerouteNo="0" devices="tripinfo_flow_W1_E1.26" vType="car" speedFactor="1.12" vaporized=""/>
    <tripinfo id="flow_E2_W2.15" depart="105.00" departLane="entry_E2_0" departPos="5.10" departSpeed="0.00" departDelay="0.00" arrival="183.00" arrivalLane="exit_W2_0" arrivalPos="189.60" arrivalSpeed="13.64" duration="78.00" routeLength="594.90" waitingTime="20.00" waitingCount="2" stopTime="0.00" timeLoss="35.61" rerouteNo="0" devices="tripinfo_flow_E2_W2.15" vType="car" speedFactor="1.02" vaporized=""/>
    <tripinfo id="flow_W1_E1.27" depart="108.00" departLane="entry_W1_0" departPos="5.10" departSpeed="0.00" departDelay="0.00" arrival="183.00" arrivalLane="exit_E1_0" arrivalPos="189.60" arrivalSpeed="13.04" duration="75.00" routeLength="594.90" waitingTime="15.00" waitingCount="2" stopTime="0.00" timeLoss="31.49" rerouteNo="0" devices="tripinfo_flow_W1_E1.27" vType="car" speedFactor="0.99" vaporized=""/>
    <tripinfo id="flow_E2_W2.16" depart="112.00" departLane="entry_E2_0" departPos="5.10" departSpeed="0.00" departDelay="0.00" arrival="185.00" arrivalLane="exit_W2_1" arrivalPos="189.60" arrivalSpeed="12.20" duration="73.00" routeLength="594.90" waitingTime="11.00" waitingCount="2" stopTime="0.00" timeLoss="25.88" rerouteNo="0" devices="tripinfo_flow_E2_W2.16" vType="car" speedFactor="0.91" vaporized=""/>
    <tripinfo id="flow_W1_E1.29" depart="116.00" departLane="entry_W1_0" departPos="5.10" departSpeed="0.00" departDelay="0.00" arrival="185.00" arrivalLane="exit_E1_1" arrivalPos="189.60" arrivalSpeed="14.29" duration="69.00" routeLength="594.90" waitingTime="9.00" waitingCount="1" stopTime="0.00" timeLoss="27.14" rerouteNo="0" devices="tripinfo_flow_W1_E1.29" vType="car" speedFactor="1.04" vaporized=""/>
    <tripinfo id="flow_E2_W2.17" depart="119.00" departLane="entry_E2_0" departPos="5.10" departSpeed="0.00" departDelay="0.00" arrival="185.00" arrivalLane="exit_W2_0" arrivalPos="189.60" arrivalSpeed="13.63" duration="66.00" routeLength="594.90" waitingTime="9.00" waitingCount="1" stopTime="0.00" timeLoss="23.99" rerouteNo="0" devices="tripinfo_flow_E2_W2.17" vType="car" speedFactor="1.02" vaporized=""/>
    <tripinfo id="flow_W1_E1.28" depart="112.00" departLane="entry_W1_0" departPos="5.10" departSpeed="0.00" departDelay="0.00" arrival="187.00" arrivalLane="exit_E1_0" arrivalPos="189.60" arrivalSpeed="12.40" duration="75.00" routeLength="594.90" waitingTime="11.00" waitingCount="2" stopTime="0.00" timeLoss="27.22" rerouteNo="0" devices="tripinfo_flow_W1_E1.28" vType="car" speedFactor="0.91" vaporized=""/>