<?xml version="1.0" encoding="UTF-8"?>

<!-- generated on 2025-08-21 22:24:01 by Eclipse SUMO GUI Version 1.24.0
<sumoConfiguration xmlns:xsi="http://www.w3.org/2001/XMLSchema-instance" xsi:noNamespaceSchemaLocation="http://sumo.dlr.de/xsd/sumoConfiguration.xsd">

    <input>
        <net-file value="C:\Users\maame\TrafficFlowOptimization\CityGrid\traffic\../network/grid.net.xml"/>
        <route-files value="C:\Users\maame\TrafficFlowOptimization\CityGrid\traffic\grid.rou.xml"/>
    </input>

    <output>
        <tripinfo-output value="C:\Users\maame\TrafficFlowOptimization\CityGrid\traffic\tripinfo.xml"/>
    </output>

    <time>
        <begin value="0"/>
        <end value="1800"/>
    </time>

    <report>
        <verbose value="true"/>
        <no-step-log value="true"/>
    </report>

    <traci_server>
        <remote-port value="58691"/>
    </traci_server>

    <gui_only>
        <gui-settings-file value="C:\Users\maame\TrafficFlowOptimization\CityGrid\traffic\gui_settings.xml"/>
    </gui_only>

</sumoConfiguration>
-->

<tripinfos xmlns:xsi="http://www.w3.org/2001/XMLSchema-instance" xsi:noNamespaceSchemaLocation="http://sumo.dlr.de/xsd/tripinfo_file.xsd">
    <tripinfo id="flow_W1_E1.0" depart="0.00" departLane="entry_W1_0" departPos="5.10" departSpeed="0.00" departDelay="0.00" arrival="45.00" arrivalLane="exit_E1_0" arrivalPos="189.60" arrivalSpeed="14.19" duration="45.00" routeLength="594.90" waitingTime="0.00" waitingCount="0" stopTime="0.00" timeLoss="4.40" rerouteNo="0" devices="tripinfo_flow_W1_E1.0" vType="car" speedFactor="1.06" vaporized=""/>
    <tripinfo id="flow_E2_W2.0" depart="0.00" departLane="entry_E2_0" departPos="5.10" departSpeed="0.00" departDelay="0.00" arrival="48.00" arrivalLane="exit_W2_0" arrivalPos="189.60" arrivalSpeed="13.51" duration="48.00" routeLength="594.90" waitingTime="0.00" waitingCount="0" stopTime="0.00" timeLoss="5.07" rerouteNo="0" devices="tripinfo_flow_E2_W2.0" vType="car" speedFactor="1.01" vaporized=""/>
    <tripinfo id="flow_left_turn.0" depart="4.00" departLane="entry_N1_0" departPos="5.10" departSpeed="0.00" departDelay="4.00" arrival="59.00" arrivalLane="exit_W2_0" arrivalPos="189.60" arrivalSpeed="14.52" duration="55.00" routeLength="583.13" waitingTime="0.00" waitingCount="0" stopTime="0.00" timeLoss="15.21" rerouteNo="0" devices="tripinfo_flow_left_turn.0" vType="car" speedFactor="1.08" vaporized=""/>
    <tripinfo id="flow_N1_S1.0" depart="0.00" departLane="entry_N1_0" departPos="7.60" departSpeed="0.00" departDelay="0.00" arrival="60.00" arrivalLane="exit_S1_0" arrivalPos="189.60" arrivalSpeed="12.44" duration="60.00" routeLength="592.40" waitingTime="0.00" waitingCount="0" stopTime="0.00" timeLoss="13.93" rerouteNo="0" devices="tripinfo_flow_N1_S1.0" vType="truck" speedFactor="0.94" vaporized=""/>
    <tripinfo id="flow_W1_E1.1" depart="4.00" departLane="entry_W1_0" departPos="5.10" departSpeed="0.00" departDelay="0.00" arrival="66.00" arrivalLane="exit_E1_0" arrivalPos="189.60" arrivalSpeed="14.13" duration="62.00" routeLength="594.90" waitingTime="6.00" waitingCount="1" stopTime="0.00" timeLoss="20.43" rerouteNo="0" devices="tripinfo_flow_W1_E1.1" vType="car" speedFactor="1.03" vaporized=""/>
    <tripinfo id="flow_E2_W2.2" depart="14.00" departLane="entry_E2_0" departPos="5.10" departSpeed="0.00" departDelay="0.00" arrival="66.00" arrivalLane="exit_W2_1" arrivalPos="189.60" arrivalSpeed="15.09" duration="52.00" routeLength="594.90" waitingTime="1.00" waitingCount="1" stopTime="0.00" timeLoss="12.26" rerouteNo="0" devices="tripinfo_flow_E2_W2.2" vType="car" speedFactor="1.09" vaporized=""/>
    <tripinfo id="flow_W1_E1.2" depart="8.00" departLane="entry_W1_0" departPos="5.10" departSpeed="0.00" departDelay="0.00" arrival="67.00" arrivalLane="exit_E1_0" arrivalPos="189.60" arrivalSpeed="14.11" duration="59.00" routeLength="594.90" waitingTime="1.00" waitingCount="1" stopTime="0.00" timeLoss="17.35" rerouteNo="0" devices="tripinfo_flow_W1_E1.2" vType="car" speedFactor="1.05" vaporized=""/>
    <tripinfo id="flow_E2_W2.1" depart="7.00" departLane="entry_E2_0" departPos="5.10" departSpeed="0.00" departDelay="0.00" arrival="68.00" arrivalLane="exit_W2_0" arrivalPos="189.60" arrivalSpeed="11.33" duration="61.00" routeLength="594.90" waitingTime="0.00" waitingCount="0" stopTime="0.00" timeLoss="9.44" rerouteNo="0" devices="tripinfo_flow_E2_W2.1" vType="car" speedFactor="0.83" vaporized=""/>
    <tripinfo id="flow_W1_E1.4" depart="16.00" departLane="entry_W1_0" departPos="5.10" departSpeed="0.00" departDelay="0.00" arrival="68.00" arrivalLane="exit_E1_0" arrivalPos="189.60" arrivalSpeed="13.28" duration="52.00" routeLength="594.90" waitingTime="0.00" waitingCount="0" stopTime="0.00" timeLoss="10.21" rerouteNo="0" devices="tripinfo_flow_W1_E1.4" vType="car" speedFactor="1.03" vaporized=""/>
    <tripinfo id="flow_W1_E1.5" depart="20.00" departLane="entry_W1_0" departPos="5.10" departSpeed="0.00" departDelay="0.00" arrival="70.00" arrivalLane="exit_E1_0" arrivalPos="189.60" arrivalSpeed="13.53" duration="50.00" routeLength="594.90" waitingTime="0.00" waitingCount="0" stopTime="0.00" timeLoss="8.67" rerouteNo="0" devices="tripinfo_flow_W1_E1.5" vType="car" speedFactor="1.05" vaporized=""/>
    <tripinfo id="flow_W1_E1.3" depart="12.00" departLane="entry_W1_0" departPos="5.10" departSpeed="0.00" departDelay="0.00" arrival="71.00" arrivalLane="exit_E1_1" arrivalPos="189.60" arrivalSpeed="12.42" duration="59.00" routeLength="594.90" waitingTime="0.00" waitingCount="0" stopTime="0.00" timeLoss="12.43" rerouteNo="0" devices="tripinfo_flow_W1_E1.3" vType="car" speedFactor="0.94" vaporized=""/>
    <tripinfo id="flow_N1_S1.1" depart="10.00" departLane="entry_N1_0" departPos="7.60" departSpeed="0.00" departDelay="0.00" arrival="79.00" arrivalLane="exit_S1_1" arrivalPos="189.60" arrivalSpeed="12.03" duration="69.00" routeLength="592.40" waitingTime="6.00" waitingCount="1" stopTime="0.00" timeLoss="20.73" rerouteNo="0" devices="tripinfo_flow_N1_S1.1" vType="truck" speedFactor="0.89" vaporized=""/>
    <tripinfo id="flow_N1_S1.2" depart="20.00" departLane="entry_N1_0" departPos="7.60" departSpeed="0.00" departDelay="0.00" arrival="81.00" arrivalLane="exit_S1_0" arrivalPos="189.60" arrivalSpeed="14.49" duration="61.00" routeLength="592.40" waitingTime="5.00" waitingCount="1" stopTime="0.00" timeLoss="20.87" rerouteNo="0" devices="tripinfo_flow_N1_S1.2" vType="truck" speedFactor="1.12" vaporized=""/>
    <tripinfo id="flow_left_turn.1" depart="14.00" departLane="entry_N1_0" departPos="5.10" departSpeed="0.00" departDelay="2.00" arrival="85.00" arrivalLane="exit_W2_0" arrivalPos="189.60" arrivalSpeed="11.60" duration="71.00" routeLength="583.13" waitingTime="5.00" waitingCount="1" stopTime="0.00" timeLoss="20.53" rerouteNo="0" devices="tripinfo_flow_left_turn.1" vType="car" speedFactor="0.86" vaporized=""/>
    <tripinfo id="flow_left_turn.2" depart="24.00" departLane="entry_N1_0" departPos="5.10" departSpeed="0.00" departDelay="0.00" arrival="87.00" arrivalLane="exit_W2_0" arrivalPos="189.60" arrivalSpeed="12.04" duration="63.00" routeLength="583.13" waitingTime="0.00" waitingCount="0" stopTime="0.00" timeLoss="13.89" rerouteNo="0" devices="tripinfo_flow_left_turn.2" vType="car" speedFactor="0.88" vaporized=""/>
    <tripinfo id="flow_E2_W2.3" depart="21.00" departLane="entry_E2_0" departPos="5.10" departSpeed="0.00" departDelay="0.00" arrival="89.00" arrivalLane="exit_W2_0" arrivalPos="189.60" arrivalSpeed="13.68" duration="68.00" routeLength="594.90" waitingTime="10.00" waitingCount="2" stopTime="0.00" timeLoss="24.48" rerouteNo="0" devices="tripinfo_flow_E2_W2.3" vType="car" speedFactor="0.99" vaporized=""/>
    <tripinfo id="flow_W1_E1.6" depart="24.00" departLane="entry_W1_0" departPos="5.10" departSpeed="0.00" departDelay="0.00" arrival="90.00" arrivalLane="exit_E1_0" arrivalPos="189.60" arrivalSpeed="12.54" duration="66.00" routeLength="594.90" waitingTime="2.00" waitingCount="1" stopTime="0.00" timeLoss="19.48" rerouteNo="0" devices="tripinfo_flow_W1_E1.6" vType="car" speedFactor="0.93" vaporized=""/>
    <tripinfo id="flow_W1_E1.7" depart="28.00" departLane="entry_W1_0" departPos="5.10" departSpeed="0.00" departDelay="0.00" arrival="90.00" arrivalLane="exit_E1_1" arrivalPos="189.60" arrivalSpeed="12.79" duration="62.00" routeLength="594.90" waitingTime="0.00" waitingCount="0" stopTime="0.00" timeLoss="15.74" rerouteNo="0" devices="tripinfo_flow_W1_E1.7" vType="car" speedFactor="0.94" vaporized=""/>
    <tripinfo id="flow_E2_W2.4" depart="28.00" departLane="entry_E2_0" departPos="5.10" departSpeed="0.00" departDelay="0.00" arrival="91.00" arrivalLane="exit_W2_0" arrivalPos="189.60" arrivalSpeed="11.75" duration="63.00" routeLength="594.90" waitingTime="0.00" waitingCount="0" stopTime="0.00" timeLoss="16.62" rerouteNo="0" devices="tripinfo_flow_E2_W2.4" vType="car" speedFactor="0.94" vaporized=""/>
    <tripinfo id="flow_W1_E1.9" depart="36.00" departLane="entry_W1_0" departPos="5.10" departSpeed="0.00" departDelay="0.00" arrival="91.00" arrivalLane="exit_E1_1" arrivalPos="189.60" arrivalSpeed="13.39" duration="55.00" routeLength="594.90" waitingTime="0.00" waitingCount="0" stopTime="0.00" timeLoss="10.94" rerouteNo="0" devices="tripinfo_flow_W1_E1.9" vType="car" speedFactor="0.97" vaporized=""/>
    <tripinfo id="flow_W1_E1.8" depart="32.00" departLane="entry_W1_0" departPos="5.10" departSpeed="0.00" departDelay="0.00" arrival="92.00" arrivalLane="exit_E1_0" arrivalPos="189.60" arrivalSpeed="13.69" duration="60.00" routeLength="594.90" waitingTime="0.00" waitingCount="0" stopTime="0.00" timeLoss="17.25" rerouteNo="0" devices="tripinfo_flow_W1_E1.8" vType="car" speedFactor="1.02" vaporized=""/>
    <tripinfo id="flow_E2_W2.5" depart="35.00" departLane="entry_E2_0" departPos="5.10" departSpeed="0.00" departDelay="0.00" arrival="92.00" arrivalLane="exit_W2_1" arrivalPos="189.60" arrivalSpeed="12.90" duration="57.00" routeLength="594.90" waitingTime="0.00" waitingCount="0" stopTime="0.00" timeLoss="14.15" rerouteNo="0" devices="tripinfo_flow_E2_W2.5" vType="car" speedFactor="1.01" vaporized=""/>
    <tripinfo id="flow_E2_W2.6" depart="42.00" departLane="entry_E2_0" departPos="5.10" departSpeed="0.00" departDelay="0.00" arrival="94.00" arrivalLane="exit_W2_0" arrivalPos="189.60" arrivalSpeed="11.55" duration="52.00" routeLength="594.90" waitingTime="0.00" waitingCount="0" stopTime="0.00" timeLoss="4.85" rerouteNo="0" devices="tripinfo_flow_E2_W2.6" vType="car" speedFactor="0.92" vaporized=""/>
    <tripinfo id="flow_W1_E1.10" depart="40.00" departLane="entry_W1_0" departPos="5.10" departSpeed="0.00" departDelay="0.00" arrival="98.00" arrivalLane="exit_E1_0" arrivalPos="189.60" arrivalSpeed="10.33" duration="58.00" routeLength="594.90" waitingTime="0.00" waitingCount="0" stopTime="0.00" timeLoss="5.49" rerouteNo="0" devices="tripinfo_flow_W1_E1.10" vType="car" speedFactor="0.83" vaporized=""/>
    <tripinfo id="flow_left_turn.3" depart="36.00" departLane="entry_N1_0" departPos="5.10" departSpeed="0.00" departDelay="0.00" arrival="103.00" arrivalLane="exit_W2_0" arrivalPos="189.60" arrivalSpeed="11.20" duration="67.00" routeLength="583.13" waitingTime="2.00" waitingCount="1" stopTime="0.00" timeLoss="18.79" rerouteNo="0" devices="tripinfo_flow_left_turn.3" vType="car" speedFactor="0.89" vaporized=""/>
    <tripinfo id="flow_N1_S1.3" depart="30.00" departLane="entry_N1_0" departPos="7.60" departSpeed="0.00" departDelay="0.00" arrival="104.00" arrivalLane="exit_S1_0" arrivalPos="189.60" arrivalSpeed="14.45" duration="74.00" routeLength="592.40" waitingTime="11.00" waitingCount="2" stopTime="0.00" timeLoss="34.15" rerouteNo="0" devices="tripinfo_flow_N1_S1.3" vType="truck" speedFactor="1.16" vaporized=""/>
    <tripinfo id="flow_N1_S1.4" depart="40.00" departLane="entry_N1_0" departPos="7.60" departSpeed="0.00" departDelay="0.00" arrival="106.00" arrivalLane="exit_S1_0" arrivalPos="189.60" arrivalSpeed="11.92" duration="66.00" routeLength="592.40" waitingTime="0.00" waitingCount="0" stopTime="0.00" timeLoss="17.04" rerouteNo="0" devices="tripinfo_flow_N1_S1.4" vType="truck" speedFactor="0.87" vaporized=""/>
    <tripinfo id="flow_N1_S1.5" depart="51.00" departLane="entry_N1_0" departPos="7.60" departSpeed="0.00" departDelay="1.00" arrival="106.00" arrivalLane="exit_S1_1" arrivalPos="189.60" arrivalSpeed="14.74" duration="55.00" routeLength="592.40" waitingTime="0.00" waitingCount="0" stopTime="0.00" timeLoss="15.09" rerouteNo="0" devices="tripinfo_flow_N1_S1.5" vType="truck" speedFactor="1.15" vaporized=""/>
    <tripinfo id="flow_left_turn.4" depart="48.00" departLane="entry_N1_0" departPos="5.10" departSpeed="0.00" departDelay="0.00" arrival="109.00" arrivalLane="exit_W2_0" arrivalPos="189.60" arrivalSpeed="12.77" duration="61.00" routeLength="583.13" waitingTime="0.00" waitingCount="0" stopTime="0.00" timeLoss="14.07" rerouteNo="0" devices="tripinfo_flow_left_turn.4" vType="car" speedFactor="0.93" vaporized=""/>
    <tripinfo id="flow_E2_W2.7" depart="49.00" departLane="entry_E2_0" departPos="5.10" departSpeed="0.00" departDelay="0.00" arrival="110.00" arrivalLane="exit_W2_0" arrivalPos="189.60" arrivalSpeed="15.57" duration="61.00" routeLength="594.90" waitingTime="4.00" waitingCount="2" stopTime="0.00" timeLoss="24.52" rerouteNo="0" devices="tripinfo_flow_E2_W2.7" vType="car" speedFactor="1.18" vaporized=""/>
    <tripinfo id="flow_W1_E1.12" depart="48.00" departLane="entry_W1_0" departPos="5.10" departSpeed="0.00" departDelay="0.00" arrival="111.00" arrivalLane="exit_E1_0" arrivalPos="189.60" arrivalSpeed="14.64" duration="63.00" routeLength="594.90" waitingTime="6.00" waitingCount="2" stopTime="0.00" timeLoss="24.63" rerouteNo="0" devices="tripinfo_flow_W1_E1.12" vType="car" speedFactor="1.13" vaporized=""/>
    <tripinfo id="flow_W1_E1.14" depart="56.00" departLane="entry_W1_0" departPos="5.10" departSpeed="0.00" departDelay="0.00" arrival="112.00" arrivalLane="exit_E1_1" arrivalPos="189.60" arrivalSpeed="16.20" duration="56.00" routeLength="594.90" waitingTime="2.00" waitingCount="1" stopTime="0.00" timeLoss="19.40" rerouteNo="0" devices="tripinfo_flow_W1_E1.14" vType="car" speedFactor="1.17" vaporized=""/>
    <tripinfo id="flow_E2_W2.8" depart="56.00" departLane="entry_E2_0" departPos="5.10" departSpeed="0.00" departDelay="0.00" arrival="112.00" arrivalLane="exit_W2_1" arrivalPos="189.60" arrivalSpeed="13.38" duration="56.00" routeLength="594.90" waitingTime="3.00" waitingCount="1" stopTime="0.00" timeLoss="12.91" rerouteNo="0" devices="tripinfo_flow_E2_W2.8" vType="car" speedFactor="0.99" vaporized=""/>
    <tripinfo id="flow_W1_E1.11" depart="44.00" departLane="entry_W1_0" departPos="5.10" departSpeed="0.00" departDelay="0.00" arrival="113.00" arrivalLane="exit_E1_0" arrivalPos="189.60" arrivalSpeed="12.80" duration="69.00" routeLength="594.90" waitingTime="7.00" waitingCount="2" stopTime="0.00" timeLoss="23.52" rerouteNo="0" devices="tripinfo_flow_W1_E1.11" vType="car" speedFactor="0.95" vaporized=""/>
    <tripinfo id="flow_E2_W2.9" depart="63.00" departLane="entry_E2_0" departPos="5.10" departSpeed="0.00" departDelay="0.00" arrival="113.00" arrivalLane="exit_W2_0" arrivalPos="189.60" arrivalSpeed="14.27" duration="50.00" routeLength="594.90" waitingTime="0.00" waitingCount="0" stopTime="0.00" timeLoss="10.37" rerouteNo="0" devices="tripinfo_flow_E2_W2.9" vType="car" speedFactor="1.10" vaporized=""/>
    <tripinfo id="flow_W1_E1.13" depart="52.00" departLane="entry_W1_0" departPos="5.10" departSpeed="0.00" departDelay="0.00" arrival="115.00" arrivalLane="exit_E1_0" arrivalPos="189.60" arrivalSpeed="12.75" duration="63.00" routeLength="594.90" waitingTime="0.00" waitingCount="0" stopTime="0.00" timeLoss="19.74" rerouteNo="0" devices="tripinfo_flow_W1_E1.13" vType="car" speedFactor="1.01" vaporized=""/>
    <tripinfo id="flow_W1_E1.15" depart="60.00" departLane="entry_W1_0" departPos="5.10" departSpeed="0.00" departDelay="0.00" arrival="116.00" arrivalLane="exit_E1_1" arrivalPos="189.60" arrivalSpeed="13.86" duration="56.00" routeLength="594.90" waitingTime="1.00" waitingCount="1" stopTime="0.00" timeLoss="13.35" rerouteNo="0" devices="tripinfo_flow_W1_E1.15" vType="car" speedFactor="1.02" vaporized=""/>
    <tripinfo id="flow_W1_E1.16" depart="64.00" departLane="entry_W1_0" departPos="5.10" departSpeed="0.00" departDelay="0.00" arrival="118.00" arrivalLane="exit_E1_0" arrivalPos="189.60" arrivalSpeed="12.33" duration="54.00" routeLength="594.90" waitingTime="0.00" waitingCount="0" stopTime="0.00" timeLoss="5.68" rerouteNo="0" devices="tripinfo_flow_W1_E1.16" vType="car" speedFactor="0.90" vaporized=""/>
    <tripinfo id="flow_N1_S1.6" depart="60.00" departLane="entry_N1_0" departPos="7.60" departSpeed="0.00" departDelay="0.00" arrival="121.00" arrivalLane="exit_S1_0" arrivalPos="189.60" arrivalSpeed="12.78" duration="61.00" routeLength="592.40" waitingTime="2.00" waitingCount="1" stopTime="0.00" timeLoss="16.39" rerouteNo="0" devices="tripinfo_flow_N1_S1.6" vType="truck" speedFactor="0.97" vaporized=""/>
    <tripinfo id="flow_left_turn.5" depart="63.00" departLane="entry_N1_0" departPos="5.10" departSpeed="0.00" departDelay="3.00" arrival="121.00" arrivalLane="exit_W2_0" arrivalPos="189.60" arrivalSpeed="15.78" duration="58.00" routeLength="583.13" waitingTime="1.00" waitingCount="1" stopTime="0.00" timeLoss="21.36" rerouteNo="0" devices="tripinfo_flow_left_turn.5" vType="car" speedFactor="1.18" vaporized=""/>
    <tripinfo id="flow_N1_S1.7" depart="70.00" departLane="entry_N1_0" departPos="7.60" departSpeed="0.00" departDelay="0.00" arrival="121.00" arrivalLane="exit_S1_1" arrivalPos="189.60" arrivalSpeed="12.81" duration="51.00" routeLength="592.40" waitingTime="0.00" waitingCount="0" stopTime="0.00" timeLoss="6.44" rerouteNo="0" devices="tripinfo_flow_N1_S1.7" vType="truck" speedFactor="0.96" vaporized=""/>
    <tripinfo id="flow_left_turn.6" depart="73.00" departLane="entry_N1_0" departPos="5.10" departSpeed="0.00" departDelay="1.00" arrival="125.00" arrivalLane="exit_W2_0" arrivalPos="189.60" arrivalSpeed="14.21" duration="52.00" routeLength="583.13" waitingTime="0.00" waitingCount="0" stopTime="0.00" timeLoss="10.83" rerouteNo="0" devices="tripinfo_flow_left_turn.6" vType="car" speedFactor="1.04" vaporized=""/>
    <tripinfo id="flow_E2_W2.10" depart="70.00" departLane="entry_E2_0" departPos="5.10" departSpeed="0.00" departDelay="0.00" arrival="131.00" arrivalLane="exit_W2_0" arrivalPos="189.60" arrivalSpeed="14.08" duration="61.00" routeLength="594.90" waitingTime="7.00" waitingCount="2" stopTime="0.00" timeLoss="21.73" rerouteNo="0" devices="tripinfo_flow_E2_W2.10" vType="car" speedFactor="1.09" vaporized=""/>
    <tripinfo id="flow_W1_E1.17" depart="68.00" departLane="entry_W1_0" departPos="5.10" departSpeed="0.00" departDelay="0.00" arrival="132.00" arrivalLane="exit_E1_1" arrivalPos="189.60" arrivalSpeed="13.58" duration="64.00" routeLength="594.90" waitingTime="6.00" waitingCount="1" stopTime="0.00" timeLoss="22.06" rerouteNo="0" devices="tripinfo_flow_W1_E1.17" vType="car" speedFactor="1.03" vaporized=""/>
    <tripinfo id="flow_W1_E1.18" depart="72.00" departLane="entry_W1_0" departPos="5.10" departSpeed="0.00" departDelay="0.00" arrival="132.00" arrivalLane="exit_E1_0" arrivalPos="189.60" arrivalSpeed="13.58" duration="60.00" routeLength="594.90" waitingTime="2.00" waitingCount="1" stopTime="0.00" timeLoss="18.00" rerouteNo="0" devices="tripinfo_flow_W1_E1.18" vType="car" speedFactor="1.04" vaporized=""/>
    <tripinfo id="flow_E2_W2.11" depart="77.00" departLane="entry_E2_0" departPos="5.10" departSpeed="0.00" departDelay="0.00" arrival="132.00" arrivalLane="exit_W2_0" arrivalPos="189.60" arrivalSpeed="12.77" duration="55.00" routeLength="594.90" waitingTime="2.00" waitingCount="1" stopTime="0.00" timeLoss="11.74" rerouteNo="0" devices="tripinfo_flow_E2_W2.11" vType="car" speedFactor="1.00" vaporized=""/>
    <tripinfo id="flow_W1_E1.19" depart="76.00" departLane="entry_W1_0" departPos="5.10" departSpeed="0.00" departDelay="0.00" arrival="133.00" arrivalLane="exit_E1_0" arrivalPos="189.60" arrivalSpeed="14.56" duration="57.00" routeLength="594.90" waitingTime="0.00" waitingCount="0" stopTime="0.00" timeLoss="17.51" rerouteNo="0" devices="tripinfo_flow_W1_E1.19" vType="car" speedFactor="1.09" vaporized=""/>
    <tripinfo id="flow_W1_E1.20" depart="80.00" departLane="entry_W1_0" departPos="5.10" departSpeed="0.00" departDelay="0.00" arrival="136.00" arrivalLane="exit_E1_1" arrivalPos="189.60" arrivalSpeed="11.57" duration="56.00" routeLength="594.90" waitingTime="0.00" waitingCount="0" stopTime="0.00" timeLoss="7.74" rerouteNo="0" devices="tripinfo_flow_W1_E1.20" vType="car" speedFactor="0.90" vaporized=""/>
    <tripinfo id="flow_W1_E1.21" depart="84.00" departLane="entry_W1_0" departPos="5.10" departSpeed="0.00" departDelay="0.00" arrival="140.00" arrivalLane="exit_E1_0" arrivalPos="189.60" arrivalSpeed="11.73" duration="56.00" routeLength="594.90" waitingTime="0.00" waitingCount="0" stopTime="0.00" timeLoss="5.19" rerouteNo="0" devices="tripinfo_flow_W1_E1.21" vType="car" speedFactor="0.85" vaporized=""/>
    <tripinfo id="flow_N1_S1.9" depart="90.00" departLane="entry_N1_0" departPos="7.60" departSpeed="0.00" departDelay="0.00" arrival="140.00" arrivalLane="exit_S1_1" arrivalPos="189.60" arrivalSpeed="14.51" duration="50.00" routeLength="592.40" waitingTime="0.00" waitingCount="0" stopTime="0.00" timeLoss="10.36" rerouteNo="0" devices="tripinfo_flow_N1_S1.9" vType="truck" speedFactor="1.10" vaporized=""/>
    <tripinfo id="flow_left_turn.7" depart="84.00" departLane="entry_N1_0" departPos="5.10" departSpeed="0.00" departDelay="0.00" arrival="142.00" arrivalLane="exit_W2_0" arrivalPos="189.60" arrivalSpeed="15.52" duration="58.00" routeLength="583.13" waitingTime="0.00" waitingCount="0" stopTime="0.00" timeLoss="21.53" rerouteNo="0" devices="tripinfo_flow_left_turn.7" vType="car" speedFactor="1.17" vaporized=""/>
    <tripinfo id="flow_N1_S1.8" depart="80.00" departLane="entry_N1_0" departPos="7.60" departSpeed="0.00" departDelay="0.00" arrival="143.00" arrivalLane="exit_S1_0" arrivalPos="189.60" arrivalSpeed="12.09" duration="63.00" routeLength="592.40" waitingTime="0.00" waitingCount="0" stopTime="0.00" timeLoss="14.18" rerouteNo="0" devices="tripinfo_flow_N1_S1.8" vType="truck" speedFactor="0.88" vaporized=""/>
    <tripinfo id="flow_left_turn.8" depart="96.00" departLane="entry_N1_0" departPos="5.10" departSpeed="0.00" departDelay="0.00" arrival="145.00" arrivalLane="exit_W2_0" arrivalPos="189.60" arrivalSpeed="14.88" duration="49.00" routeLength="583.13" waitingTime="0.00" waitingCount="0" stopTime="0.00" timeLoss="11.28" rerouteNo="0" devices="tripinfo_flow_left_turn.8" vType="car" speedFactor="1.14" vaporized=""/>
    <tripinfo id="flow_W1_E1.22" depart="88.00" departLane="entry_W1_0" departPos="5.10" departSpeed="0.00" departDelay="0.00" arrival="152.00" arrivalLane="exit_E1_1" arrivalPos="189.60" arrivalSpeed="13.48" duration="64.00" routeLength="594.90" waitingTime="5.00" waitingCount="1" stopTime="0.00" timeLoss="21.20" rerouteNo="0" devices="tripinfo_flow_W1_E1.22" vType="car" speedFactor="1.02" vaporized=""/>
    <tripinfo id="flow_W1_E1.23" depart="92.00" departLane="entry_W1_0" departPos="5.10" departSpeed="0.00" departDelay="0.00" arrival="152.00" arrivalLane="exit_E1_0" arrivalPos="189.60" arrivalSpeed="13.10" duration="60.00" routeLength="594.90" waitingTime="0.00" waitingCount="0" stopTime="0.00" timeLoss="16.65" rerouteNo="0" devices="tripinfo_flow_W1_E1.23" vType="car" speedFactor="1.00" vaporized=""/>
    <tripinfo id="flow_E2_W2.12" depart="84.00" departLane="entry_E2_0" departPos="5.10" departSpeed="0.00" departDelay="0.00" arrival="153.00" arrivalLane="exit_W2_0" arrivalPos="189.60" arrivalSpeed="11.28" duration="69.00" routeLength="594.90" waitingTime="9.00" waitingCount="1" stopTime="0.00" timeLoss="18.15" rerouteNo="0" devices="tripinfo_flow_E2_W2.12" vType="car" speedFactor="0.85" vaporized=""/>
    <tripinfo id="flow_E2_W2.13" depart="91.00" departLane="entry_E2_0" departPos="5.10" departSpeed="0.00" departDelay="0.00" arrival="153.00" arrivalLane="exit_W2_1" arrivalPos="189.60" arrivalSpeed="12.68" duration="62.00" routeLength="594.90" waitingTime="1.00" waitingCount="1" stopTime="0.00" timeLoss="18.44" rerouteNo="0" devices="tripinfo_flow_E2_W2.13" vType="car" speedFactor="1.00" vaporized=""/>
    <tripinfo id="flow_E2_W2.14" depart="98.00" departLane="entry_E2_0" departPos="5.10" departSpeed="0.00" departDelay="0.00" arrival="154.00" arrivalLane="exit_W2_1" arrivalPos="189.60" arrivalSpeed="13.91" duration="56.00" routeLength="594.90" waitingTime="0.00" waitingCount="0" stopTime="0.00" timeLoss="13.84" rerouteNo="0" devices="tripinfo_flow_E2_W2.14" vType="car" speedFactor="1.02" vaporized=""/>
    <tripinfo id="flow_W1_E1.25" depart="100.00" departLane="entry_W1_0" departPos="5.10" departSpeed="0.00" departDelay="0.00" arrival="154.00" arrivalLane="exit_E1_1" arrivalPos="189.60" arrivalSpeed="12.57" duration="54.00" routeLength="594.90" waitingTime="0.00" waitingCount="0" stopTime="0.00" timeLoss="9.34" rerouteNo="0" devices="tripinfo_flow_W1_E1.25" vType="car" speedFactor="0.97" vaporized=""/>
    <tripinfo id="flow_E2_W2.15" depart="105.00" departLane="entry_E2_0" departPos="5.10" departSpeed="0.00" departDelay="0.00" arrival="154.00" arrivalLane="exit_W2_0" arrivalPos="189.60" arrivalSpeed="13.38" duration="49.00" routeLength="594.90" waitingTime="0.00" waitingCount="0" stopTime="0.00" timeLoss="6.74" rerouteNo="0" devices="tripinfo_flow_E2_W2.15" vType="car" speedFactor="1.02" vaporized=""/>
    <tripinfo id="flow_W1_E1.24" depart="96.00" departLane="entry_W1_0" departPos="5.10" departSpeed="0.00" departDelay="0.00" arrival="156.00" arrivalLane="exit_E1_0" arrivalPos="189.60" arrivalSpeed="11.90" duration="60.00" routeLength="594.90" waitingTime="0.00" waitingCount="0" stopTime="0.00" timeLoss="11.73" rerouteNo="0" devices="tripinfo_flow_W1_E1.24" vType="car" speedFactor="0.90" vaporized=""/>
    <tripinfo id="flow_W1_E1.26" depart="104.00" departLane="entry_W1_0" departPos="5.10" departSpeed="0.00" departDelay="0.00" arrival="156.00" arrivalLane="exit_E1_1" arrivalPos="189.60" arrivalSpeed="14.85" duration="52.00" routeLength="594.90" waitingTime="0.00" waitingCount="0" stopTime="0.00" timeLoss="12.79" rerouteNo="0" devices="tripinfo_flow_W1_E1.26" vType="car" speedFactor="1.12" vaporized=""/>
    <tripinfo id="flow_N1_S1.10" depart="100.00" departLane="entry_N1_0" departPos="7.60" departSpeed="0.00" departDelay="0.00" arrival="160.00" arrivalLane="exit_S1_0" arrivalPos="189.60" arrivalSpeed="14.43" duration="60.00" routeLength="592.40" waitingTime="0.00" waitingCount="0" stopTime="0.00" timeLoss="19.84" rerouteNo="0" devices="tripinfo_flow_N1_S1.10" vType="truck" speedFactor="1.08" vaporized=""/>
    <tripinfo id="flow_left_turn.9" depart="108.00" departLane="entry_N1_0" departPos="5.10" departSpeed="0.00" departDelay="0.00" arrival="165.00" arrivalLane="exit_W2_0" arrivalPos="189.60" arrivalSpeed="12.47" duration="57.00" routeLength="583.13" waitingTime="0.00" waitingCount="0" stopTime="0.00" timeLoss="11.11" rerouteNo="0" devices="tripinfo_flow_left_turn.9" vType="car" speedFactor="0.94" vaporized=""/>
    <tripinfo id="flow_N1_S1.11" depart="111.00" departLane="entry_N1_0" departPos="7.60" departSpeed="0.00" departDelay="1.00" arrival="166.00" arrivalLane="exit_S1_1" arrivalPos="189.60" arrivalSpeed="12.05" duration="55.00" routeLength="592.40" waitingTime="0.00" waitingCount="0" stopTime="0.00" timeLoss="6.36" rerouteNo="0" devices="tripinfo_flow_N1_S1.11" vType="truck" speedFactor="0.88" vaporized=""/>
    <tripinfo id="flow_W1_E1.27" depart="108.00" departLane="entry_W1_0" departPos="5.10" departSpeed="0.00" departDelay="0.00" arrival="172.00" arrivalLane="exit_E1_0" arrivalPos="189.60" arrivalSpeed="13.44" duration="64.00" routeLength="594.90" waitingTime="7.00" waitingCount="1" stopTime="0.00" timeLoss="20.04" rerouteNo="0" devices="tripinfo_flow_W1_E1.27" vType="car" speedFactor="0.99" vaporized=""/>
    <tripinfo id="flow_W1_E1.28" depart="112.00" departLane="entry_W1_0" departPos="5.10" departSpeed="0.00" departDelay="0.00" arrival="172.00" arrivalLane="exit_E1_1" arrivalPos="189.60" arrivalSpeed="12.31" duration="60.00" routeLength="594.90" waitingTime="0.00" waitingCount="0" stopTime="0.00" timeLoss="12.53" rerouteNo="0" devices="tripinfo_flow_W1_E1.28" vType="car" speedFactor="0.91" vaporized=""/>
    <tripinfo id="flow_E2_W2.16" depart="112.00" departLane="entry_E2_0" departPos="5.10" departSpeed="0.00" departDelay="0.00" arrival="172.00" arrivalLane="exit_W2_0" arrivalPos="189.60" arrivalSpeed="12.43" duration="60.00" routeLength="594.90" waitingTime="0.00" waitingCount="0" stopTime="0.00" timeLoss="12.46" rerouteNo="0" devices="tripinfo_flow_E2_W2.16" vType="car" speedFactor="0.91" vaporized=""/>
    <tripinfo id="flow_E2_W2.17" depart="119.00" departLane="entry_E2_0" departPos="5.10" departSpeed="0.00" departDelay="0.00" arrival="173.00" arrivalLane="exit_W2_0" arrivalPos="189.60" arrivalSpeed="13.41" duration="54.00" routeLength="594.90" waitingTime="1.00" waitingCount="1" stopTime="0.00" timeLoss="12.05" rerouteNo="0" devices="tripinfo_flow_E2_W2.17" vType="car" speedFactor="1.02" vaporized=""/>
    <tripinfo id="flow_W1_E1.29" depart="116.00" departLane="entry_W1_0" departPos="5.10" departSpeed="0.00" departDelay="0.00" arrival="174.00" arrivalLane="exit_E1_0" arrivalPos="189.60" arrivalSpeed="13.82" duration="58.00" routeLength="594.90" waitingTime="0.00" waitingCount="0" stopTime="0.00" timeLoss="16.00" rerouteNo="0" devices="tripinfo_flow_W1_E1.29" vType="car" speedFactor="1.04" vaporized=""/>