<?xml version="1.0" encoding="UTF-8"?>

<!-- generated on 2025-08-18 20:53:12 by Eclipse SUMO GUI Version 1.24.0
<sumoConfiguration xmlns:xsi="http://www.w3.org/2001/XMLSchema-instance" xsi:noNamespaceSchemaLocation="http://sumo.dlr.de/xsd/sumoConfiguration.xsd">

    <input>
        <net-file value="C:\Users\maame\TrafficFlowOptimization\CityGrid\traffic\../network/grid.net.xml"/>
        <route-files value="C:\Users\maame\TrafficFlowOptimization\CityGrid\traffic\grid.rou.xml"/>
    </input>

    <output>
        <tripinfo-output value="C:\Users\maame\TrafficFlowOptimization\CityGrid\traffic\tripinfo.xml"/>
    </output>

    <time>
        <begin value="0"/>
        <end value="1800"/>
    </time>

    <report>
        <verbose value="true"/>
        <no-step-log value="true"/>
    </report>

    <traci_server>
        <remote-port value="58447"/>
    </traci_server>

    <gui_only>
        <gui-settings-file value="C:\Users\maame\TrafficFlowOptimization\CityGrid\traffic\gui_settings.xml"/>
    </gui_only>

</sumoConfiguration>
-->

<tripinfos xmlns:xsi="http://www.w3.org/2001/XMLSchema-instance" xsi:noNamespaceSchemaLocation="http://sumo.dlr.de/xsd/tripinfo_file.xsd">
</tripinfos>
