<?xml version="1.0" encoding="UTF-8"?>

<!-- generated on 2025-07-30 17:31:27 by Eclipse SUMO GUI Version 1.20.0
<configuration xmlns:xsi="http://www.w3.org/2001/XMLSchema-instance" xsi:noNamespaceSchemaLocation="http://sumo.dlr.de/xsd/sumoConfiguration.xsd">

    <input>
        <net-file value="C:\Users\Josh\Documents\Team9-CityGrid-Final\traffic\../network/grid.net.xml"/>
        <route-files value="C:\Users\Josh\Documents\Team9-CityGrid-Final\traffic\grid.rou.xml"/>
    </input>

    <output>
        <tripinfo-output value="C:\Users\Josh\Documents\Team9-CityGrid-Final\traffic\tripinfo.xml"/>
    </output>

    <time>
        <begin value="0"/>
        <end value="1800"/>
    </time>

    <report>
        <verbose value="true"/>
        <no-step-log value="true"/>
    </report>

    <gui_only>
        <gui-settings-file value="C:\Users\Josh\Documents\Team9-CityGrid-Final\traffic\gui_settings.xml"/>
    </gui_only>

</configuration>
-->

<tripinfos xmlns:xsi="http://www.w3.org/2001/XMLSchema-instance" xsi:noNamespaceSchemaLocation="http://sumo.dlr.de/xsd/tripinfo_file.xsd">
    <tripinfo id="flow_N1_S1.0" depart="0.00" departLane="entry_N1_0" departPos="7.60" departSpeed="0.00" departDelay="0.00" arrival="52.00" arrivalLane="exit_S1_0" arrivalPos="189.60" arrivalSpeed="12.84" duration="52.00" routeLength="592.40" waitingTime="0.00" waitingCount="0" stopTime="0.00" timeLoss="6.49" rerouteNo="0" devices="tripinfo_flow_N1_S1.0" vType="truck" speedFactor="0.94" vaporized=""/>
    <tripinfo id="flow_left_turn.0" depart="4.00" departLane="entry_N1_0" departPos="5.10" departSpeed="0.00" departDelay="4.00" arrival="54.00" arrivalLane="exit_W2_0" arrivalPos="189.60" arrivalSpeed="14.94" duration="50.00" routeLength="583.13" waitingTime="0.00" waitingCount="0" stopTime="0.00" timeLoss="10.04" rerouteNo="0" devices="tripinfo_flow_left_turn.0" vType="car" speedFactor="1.08" vaporized=""/>
    <tripinfo id="flow_W1_E1.0" depart="0.00" departLane="entry_W1_0" departPos="5.10" departSpeed="0.00" departDelay="0.00" arrival="77.00" arrivalLane="exit_E1_0" arrivalPos="189.60" arrivalSpeed="14.70" duration="77.00" routeLength="594.90" waitingTime="27.00" waitingCount="1" stopTime="0.00" timeLoss="36.45" rerouteNo="0" devices="tripinfo_flow_W1_E1.0" vType="car" speedFactor="1.06" vaporized=""/>
    <tripinfo id="flow_E2_W2.0" depart="0.00" departLane="entry_E2_0" departPos="5.10" departSpeed="0.00" departDelay="0.00" arrival="78.00" arrivalLane="exit_W2_0" arrivalPos="189.60" arrivalSpeed="13.54" duration="78.00" routeLength="594.90" waitingTime="25.00" waitingCount="1" stopTime="0.00" timeLoss="35.45" rerouteNo="0" devices="tripinfo_flow_E2_W2.0" vType="car" speedFactor="1.01" vaporized=""/>
    <tripinfo id="flow_W1_E1.1" depart="4.00" departLane="entry_W1_0" departPos="5.10" departSpeed="0.00" departDelay="0.00" arrival="78.00" arrivalLane="exit_E1_1" arrivalPos="189.60" arrivalSpeed="13.39" duration="74.00" routeLength="594.90" waitingTime="21.00" waitingCount="1" stopTime="0.00" timeLoss="31.77" rerouteNo="0" devices="tripinfo_flow_W1_E1.1" vType="car" speedFactor="1.03" vaporized=""/>
    <tripinfo id="flow_W1_E1.2" depart="8.00" departLane="entry_W1_0" departPos="5.10" departSpeed="0.00" departDelay="0.00" arrival="79.00" arrivalLane="exit_E1_0" arrivalPos="189.60" arrivalSpeed="13.32" duration="71.00" routeLength="594.90" waitingTime="19.00" waitingCount="1" stopTime="0.00" timeLoss="29.88" rerouteNo="0" devices="tripinfo_flow_W1_E1.2" vType="car" speedFactor="1.05" vaporized=""/>
    <tripinfo id="flow_E2_W2.2" depart="14.00" departLane="entry_E2_0" departPos="5.10" departSpeed="0.00" departDelay="0.00" arrival="80.00" arrivalLane="exit_W2_0" arrivalPos="189.60" arrivalSpeed="14.64" duration="66.00" routeLength="594.90" waitingTime="13.00" waitingCount="1" stopTime="0.00" timeLoss="26.18" rerouteNo="0" devices="tripinfo_flow_E2_W2.2" vType="car" speedFactor="1.09" vaporized=""/>
    <tripinfo id="flow_W1_E1.3" depart="12.00" departLane="entry_W1_0" departPos="5.10" departSpeed="0.00" departDelay="0.00" arrival="82.00" arrivalLane="exit_E1_1" arrivalPos="189.60" arrivalSpeed="12.87" duration="70.00" routeLength="594.90" waitingTime="13.00" waitingCount="1" stopTime="0.00" timeLoss="24.20" rerouteNo="0" devices="tripinfo_flow_W1_E1.3" vType="car" speedFactor="0.94" vaporized=""/>
    <tripinfo id="flow_W1_E1.4" depart="16.00" departLane="entry_W1_0" departPos="5.10" departSpeed="0.00" departDelay="0.00" arrival="82.00" arrivalLane="exit_E1_0" arrivalPos="189.60" arrivalSpeed="14.16" duration="66.00" routeLength="594.90" waitingTime="12.00" waitingCount="1" stopTime="0.00" timeLoss="23.44" rerouteNo="0" devices="tripinfo_flow_W1_E1.4" vType="car" speedFactor="1.03" vaporized=""/>
    <tripinfo id="flow_E2_W2.3" depart="21.00" departLane="entry_E2_0" departPos="5.10" departSpeed="0.00" departDelay="0.00" arrival="83.00" arrivalLane="exit_W2_1" arrivalPos="189.60" arrivalSpeed="13.21" duration="62.00" routeLength="594.90" waitingTime="4.00" waitingCount="1" stopTime="0.00" timeLoss="17.90" rerouteNo="0" devices="tripinfo_flow_E2_W2.3" vType="car" speedFactor="0.99" vaporized=""/>
    <tripinfo id="flow_E2_W2.1" depart="7.00" departLane="entry_E2_0" departPos="5.10" departSpeed="0.00" departDelay="0.00" arrival="84.00" arrivalLane="exit_W2_0" arrivalPos="189.60" arrivalSpeed="11.28" duration="77.00" routeLength="594.90" waitingTime="14.00" waitingCount="1" stopTime="0.00" timeLoss="25.04" rerouteNo="0" devices="tripinfo_flow_E2_W2.1" vType="car" speedFactor="0.83" vaporized=""/>
    <tripinfo id="flow_W1_E1.5" depart="20.00" departLane="entry_W1_0" departPos="5.10" departSpeed="0.00" departDelay="0.00" arrival="84.00" arrivalLane="exit_E1_1" arrivalPos="189.60" arrivalSpeed="13.99" duration="64.00" routeLength="594.90" waitingTime="7.00" waitingCount="1" stopTime="0.00" timeLoss="22.60" rerouteNo="0" devices="tripinfo_flow_W1_E1.5" vType="car" speedFactor="1.05" vaporized=""/>
    <tripinfo id="flow_E2_W2.5" depart="35.00" departLane="entry_E2_0" departPos="5.10" departSpeed="0.00" departDelay="0.00" arrival="84.00" arrivalLane="exit_W2_1" arrivalPos="189.60" arrivalSpeed="12.99" duration="49.00" routeLength="594.90" waitingTime="0.00" waitingCount="0" stopTime="0.00" timeLoss="6.52" rerouteNo="0" devices="tripinfo_flow_E2_W2.5" vType="car" speedFactor="1.01" vaporized=""/>
    <tripinfo id="flow_W1_E1.7" depart="28.00" departLane="entry_W1_0" departPos="5.10" departSpeed="0.00" departDelay="0.00" arrival="86.00" arrivalLane="exit_E1_1" arrivalPos="189.60" arrivalSpeed="12.34" duration="58.00" routeLength="594.90" waitingTime="0.00" waitingCount="0" stopTime="0.00" timeLoss="12.10" rerouteNo="0" devices="tripinfo_flow_W1_E1.7" vType="car" speedFactor="0.94" vaporized=""/>
    <tripinfo id="flow_E2_W2.4" depart="28.00" departLane="entry_E2_0" departPos="5.10" departSpeed="0.00" departDelay="0.00" arrival="86.00" arrivalLane="exit_W2_0" arrivalPos="189.60" arrivalSpeed="12.75" duration="58.00" routeLength="594.90" waitingTime="0.00" waitingCount="0" stopTime="0.00" timeLoss="11.54" rerouteNo="0" devices="tripinfo_flow_E2_W2.4" vType="car" speedFactor="0.94" vaporized=""/>
    <tripinfo id="flow_W1_E1.6" depart="24.00" departLane="entry_W1_0" departPos="5.10" departSpeed="0.00" departDelay="0.00" arrival="87.00" arrivalLane="exit_E1_0" arrivalPos="189.60" arrivalSpeed="12.87" duration="63.00" routeLength="594.90" waitingTime="5.00" waitingCount="1" stopTime="0.00" timeLoss="16.34" rerouteNo="0" devices="tripinfo_flow_W1_E1.6" vType="car" speedFactor="0.93" vaporized=""/>
    <tripinfo id="flow_W1_E1.9" depart="36.00" departLane="entry_W1_0" departPos="5.10" departSpeed="0.00" departDelay="0.00" arrival="88.00" arrivalLane="exit_E1_1" arrivalPos="189.60" arrivalSpeed="13.47" duration="52.00" routeLength="594.90" waitingTime="0.00" waitingCount="0" stopTime="0.00" timeLoss="7.31" rerouteNo="0" devices="tripinfo_flow_W1_E1.9" vType="car" speedFactor="0.97" vaporized=""/>
    <tripinfo id="flow_W1_E1.8" depart="32.00" departLane="entry_W1_0" departPos="5.10" departSpeed="0.00" departDelay="0.00" arrival="89.00" arrivalLane="exit_E1_0" arrivalPos="189.60" arrivalSpeed="13.32" duration="57.00" routeLength="594.90" waitingTime="0.00" waitingCount="0" stopTime="0.00" timeLoss="14.21" rerouteNo="0" devices="tripinfo_flow_W1_E1.8" vType="car" speedFactor="1.02" vaporized=""/>
    <tripinfo id="flow_E2_W2.7" depart="49.00" departLane="entry_E2_0" departPos="5.10" departSpeed="0.00" departDelay="0.00" arrival="91.00" arrivalLane="exit_W2_1" arrivalPos="189.60" arrivalSpeed="16.18" duration="42.00" routeLength="594.90" waitingTime="0.00" waitingCount="0" stopTime="0.00" timeLoss="4.70" rerouteNo="0" devices="tripinfo_flow_E2_W2.7" vType="car" speedFactor="1.18" vaporized=""/>
    <tripinfo id="flow_E2_W2.6" depart="42.00" departLane="entry_E2_0" departPos="5.10" departSpeed="0.00" departDelay="0.00" arrival="94.00" arrivalLane="exit_W2_0" arrivalPos="189.60" arrivalSpeed="11.52" duration="52.00" routeLength="594.90" waitingTime="0.00" waitingCount="0" stopTime="0.00" timeLoss="5.20" rerouteNo="0" devices="tripinfo_flow_E2_W2.6" vType="car" speedFactor="0.92" vaporized=""/>
    <tripinfo id="flow_W1_E1.11" depart="44.00" departLane="entry_W1_0" departPos="5.10" departSpeed="0.00" departDelay="0.00" arrival="94.00" arrivalLane="exit_E1_1" arrivalPos="189.60" arrivalSpeed="12.36" duration="50.00" routeLength="594.90" waitingTime="0.00" waitingCount="0" stopTime="0.00" timeLoss="4.83" rerouteNo="0" devices="tripinfo_flow_W1_E1.11" vType="car" speedFactor="0.95" vaporized=""/>
    <tripinfo id="flow_W1_E1.12" depart="48.00" departLane="entry_W1_0" departPos="5.10" departSpeed="0.00" departDelay="0.00" arrival="96.00" arrivalLane="exit_E1_1" arrivalPos="189.60" arrivalSpeed="15.56" duration="48.00" routeLength="594.90" waitingTime="0.00" waitingCount="0" stopTime="0.00" timeLoss="9.56" rerouteNo="0" devices="tripinfo_flow_W1_E1.12" vType="car" speedFactor="1.13" vaporized=""/>
    <tripinfo id="flow_W1_E1.10" depart="40.00" departLane="entry_W1_0" departPos="5.10" departSpeed="0.00" departDelay="0.00" arrival="98.00" arrivalLane="exit_E1_0" arrivalPos="189.60" arrivalSpeed="10.70" duration="58.00" routeLength="594.90" waitingTime="0.00" waitingCount="0" stopTime="0.00" timeLoss="5.63" rerouteNo="0" devices="tripinfo_flow_W1_E1.10" vType="car" speedFactor="0.83" vaporized=""/>
    <tripinfo id="flow_W1_E1.14" depart="56.00" departLane="entry_W1_0" departPos="5.10" departSpeed="0.00" departDelay="0.00" arrival="98.00" arrivalLane="exit_E1_1" arrivalPos="189.60" arrivalSpeed="15.63" duration="42.00" routeLength="594.90" waitingTime="0.00" waitingCount="0" stopTime="0.00" timeLoss="4.90" rerouteNo="0" devices="tripinfo_flow_W1_E1.14" vType="car" speedFactor="1.17" vaporized=""/>
    <tripinfo id="flow_W1_E1.13" depart="52.00" departLane="entry_W1_0" departPos="5.10" departSpeed="0.00" departDelay="0.00" arrival="100.00" arrivalLane="exit_E1_0" arrivalPos="189.60" arrivalSpeed="12.78" duration="48.00" routeLength="594.90" waitingTime="0.00" waitingCount="0" stopTime="0.00" timeLoss="4.92" rerouteNo="0" devices="tripinfo_flow_W1_E1.13" vType="car" speedFactor="1.01" vaporized=""/>
    <tripinfo id="flow_N1_S1.2" depart="20.00" departLane="entry_N1_0" departPos="7.60" departSpeed="0.00" departDelay="0.00" arrival="110.00" arrivalLane="exit_S1_1" arrivalPos="189.60" arrivalSpeed="14.41" duration="90.00" routeLength="592.40" waitingTime="34.00" waitingCount="1" stopTime="0.00" timeLoss="50.30" rerouteNo="0" devices="tripinfo_flow_N1_S1.2" vType="truck" speedFactor="1.12" vaporized=""/>
    <tripinfo id="flow_N1_S1.1" depart="10.00" departLane="entry_N1_0" departPos="7.60" departSpeed="0.00" departDelay="0.00" arrival="113.00" arrivalLane="exit_S1_0" arrivalPos="189.60" arrivalSpeed="11.79" duration="103.00" routeLength="592.40" waitingTime="40.00" waitingCount="1" stopTime="0.00" timeLoss="54.03" rerouteNo="0" devices="tripinfo_flow_N1_S1.1" vType="truck" speedFactor="0.89" vaporized=""/>
    <tripinfo id="flow_left_turn.1" depart="14.00" departLane="entry_N1_0" departPos="5.10" departSpeed="0.00" departDelay="2.00" arrival="114.00" arrivalLane="exit_W2_0" arrivalPos="189.60" arrivalSpeed="11.23" duration="100.00" routeLength="583.13" waitingTime="38.00" waitingCount="1" stopTime="0.00" timeLoss="49.66" rerouteNo="0" devices="tripinfo_flow_left_turn.1" vType="car" speedFactor="0.86" vaporized=""/>
    <tripinfo id="flow_N1_S1.3" depart="30.00" departLane="entry_N1_0" departPos="7.60" departSpeed="0.00" departDelay="0.00" arrival="123.00" arrivalLane="exit_S1_1" arrivalPos="189.60" arrivalSpeed="14.63" duration="93.00" routeLength="592.40" waitingTime="37.00" waitingCount="1" stopTime="0.00" timeLoss="53.49" rerouteNo="0" devices="tripinfo_flow_N1_S1.3" vType="truck" speedFactor="1.16" vaporized=""/>
    <tripinfo id="flow_left_turn.2" depart="24.00" departLane="entry_N1_0" departPos="5.10" departSpeed="0.00" departDelay="0.00" arrival="130.00" arrivalLane="exit_W2_0" arrivalPos="189.60" arrivalSpeed="11.13" duration="106.00" routeLength="583.13" waitingTime="43.00" waitingCount="1" stopTime="0.00" timeLoss="56.38" rerouteNo="0" devices="tripinfo_flow_left_turn.2" vType="car" speedFactor="0.88" vaporized=""/>
    <tripinfo id="flow_left_turn.3" depart="36.00" departLane="entry_N1_0" departPos="5.10" departSpeed="0.00" departDelay="0.00" arrival="132.00" arrivalLane="exit_W2_0" arrivalPos="189.60" arrivalSpeed="11.84" duration="96.00" routeLength="583.13" waitingTime="34.00" waitingCount="1" stopTime="0.00" timeLoss="47.80" rerouteNo="0" devices="tripinfo_flow_left_turn.3" vType="car" speedFactor="0.89" vaporized=""/>
    <tripinfo id="flow_N1_S1.4" depart="40.00" departLane="entry_N1_0" departPos="7.60" departSpeed="0.00" departDelay="0.00" arrival="132.00" arrivalLane="exit_S1_1" arrivalPos="189.60" arrivalSpeed="12.11" duration="92.00" routeLength="592.40" waitingTime="28.00" waitingCount="1" stopTime="0.00" timeLoss="42.24" rerouteNo="0" devices="tripinfo_flow_N1_S1.4" vType="truck" speedFactor="0.87" vaporized=""/>
    <tripinfo id="flow_left_turn.4" depart="48.00" departLane="entry_N1_0" departPos="5.10" departSpeed="0.00" departDelay="0.00" arrival="134.00" arrivalLane="exit_W2_0" arrivalPos="189.60" arrivalSpeed="12.55" duration="86.00" routeLength="583.13" waitingTime="22.00" waitingCount="1" stopTime="0.00" timeLoss="40.23" rerouteNo="0" devices="tripinfo_flow_left_turn.4" vType="car" speedFactor="0.93" vaporized=""/>
    <tripinfo id="flow_N1_S1.5" depart="52.00" departLane="entry_N1_0" departPos="7.60" departSpeed="0.00" departDelay="2.00" arrival="134.00" arrivalLane="exit_S1_1" arrivalPos="189.60" arrivalSpeed="13.58" duration="82.00" routeLength="592.40" waitingTime="19.00" waitingCount="1" stopTime="0.00" timeLoss="41.62" rerouteNo="0" devices="tripinfo_flow_N1_S1.5" vType="truck" speedFactor="1.15" vaporized=""/>
    <tripinfo id="flow_N1_S1.7" depart="70.00" departLane="entry_N1_0" departPos="7.60" departSpeed="0.00" departDelay="0.00" arrival="135.00" arrivalLane="exit_S1_1" arrivalPos="189.60" arrivalSpeed="12.72" duration="65.00" routeLength="592.40" waitingTime="3.00" waitingCount="1" stopTime="0.00" timeLoss="20.36" rerouteNo="0" devices="tripinfo_flow_N1_S1.7" vType="truck" speedFactor="0.96" vaporized=""/>
    <tripinfo id="flow_N1_S1.6" depart="60.00" departLane="entry_N1_0" departPos="7.60" departSpeed="0.00" departDelay="0.00" arrival="136.00" arrivalLane="exit_S1_0" arrivalPos="189.60" arrivalSpeed="12.93" duration="76.00" routeLength="592.40" waitingTime="13.00" waitingCount="1" stopTime="0.00" timeLoss="31.43" rerouteNo="0" devices="tripinfo_flow_N1_S1.6" vType="truck" speedFactor="0.97" vaporized=""/>
    <tripinfo id="flow_left_turn.5" depart="63.00" departLane="entry_N1_0" departPos="5.10" departSpeed="0.00" departDelay="3.00" arrival="136.00" arrivalLane="exit_W2_0" arrivalPos="189.60" arrivalSpeed="16.18" duration="73.00" routeLength="583.13" waitingTime="11.00" waitingCount="1" stopTime="0.00" timeLoss="36.39" rerouteNo="0" devices="tripinfo_flow_left_turn.5" vType="car" speedFactor="1.18" vaporized=""/>
    <tripinfo id="flow_N1_S1.8" depart="80.00" departLane="entry_N1_0" departPos="7.60" departSpeed="0.00" departDelay="0.00" arrival="138.00" arrivalLane="exit_S1_1" arrivalPos="189.60" arrivalSpeed="12.13" duration="58.00" routeLength="592.40" waitingTime="0.00" waitingCount="0" stopTime="0.00" timeLoss="8.58" rerouteNo="0" devices="tripinfo_flow_N1_S1.8" vType="truck" speedFactor="0.88" vaporized=""/>
    <tripinfo id="flow_left_turn.6" depart="74.00" departLane="entry_N1_0" departPos="5.10" departSpeed="0.00" departDelay="2.00" arrival="139.00" arrivalLane="exit_W2_0" arrivalPos="189.60" arrivalSpeed="14.21" duration="65.00" routeLength="583.13" waitingTime="3.00" waitingCount="1" stopTime="0.00" timeLoss="23.87" rerouteNo="0" devices="tripinfo_flow_left_turn.6" vType="car" speedFactor="1.04" vaporized=""/>
    <tripinfo id="flow_N1_S1.9" depart="90.00" departLane="entry_N1_0" departPos="7.60" departSpeed="0.00" departDelay="0.00" arrival="140.00" arrivalLane="exit_S1_1" arrivalPos="189.60" arrivalSpeed="13.28" duration="50.00" routeLength="592.40" waitingTime="0.00" waitingCount="0" stopTime="0.00" timeLoss="9.75" rerouteNo="0" devices="tripinfo_flow_N1_S1.9" vType="truck" speedFactor="1.10" vaporized=""/>
    <tripinfo id="flow_left_turn.7" depart="84.00" departLane="entry_N1_0" departPos="5.10" departSpeed="0.00" departDelay="0.00" arrival="141.00" arrivalLane="exit_W2_0" arrivalPos="189.60" arrivalSpeed="15.88" duration="57.00" routeLength="583.13" waitingTime="0.00" waitingCount="0" stopTime="0.00" timeLoss="20.24" rerouteNo="0" devices="tripinfo_flow_left_turn.7" vType="car" speedFactor="1.17" vaporized=""/>
    <tripinfo id="flow_left_turn.8" depart="96.00" departLane="entry_N1_0" departPos="5.10" departSpeed="0.00" departDelay="0.00" arrival="143.00" arrivalLane="exit_W2_0" arrivalPos="189.60" arrivalSpeed="15.03" duration="47.00" routeLength="583.13" waitingTime="0.00" waitingCount="0" stopTime="0.00" timeLoss="9.10" rerouteNo="0" devices="tripinfo_flow_left_turn.8" vType="car" speedFactor="1.14" vaporized=""/>
    <tripinfo id="flow_N1_S1.10" depart="100.00" departLane="entry_N1_0" departPos="7.60" departSpeed="0.00" departDelay="0.00" arrival="146.00" arrivalLane="exit_S1_0" arrivalPos="189.60" arrivalSpeed="14.37" duration="46.00" routeLength="592.40" waitingTime="0.00" waitingCount="0" stopTime="0.00" timeLoss="6.28" rerouteNo="0" devices="tripinfo_flow_N1_S1.10" vType="truck" speedFactor="1.08" vaporized=""/>
    <tripinfo id="flow_E2_W2.9" depart="63.00" departLane="entry_E2_0" departPos="5.10" departSpeed="0.00" departDelay="0.00" arrival="152.00" arrivalLane="exit_W2_0" arrivalPos="189.60" arrivalSpeed="14.60" duration="89.00" routeLength="594.90" waitingTime="40.00" waitingCount="1" stopTime="0.00" timeLoss="49.64" rerouteNo="0" devices="tripinfo_flow_E2_W2.9" vType="car" speedFactor="1.10" vaporized=""/>
    <tripinfo id="flow_W1_E1.15" depart="60.00" departLane="entry_W1_0" departPos="5.10" departSpeed="0.00" departDelay="0.00" arrival="153.00" arrivalLane="exit_E1_0" arrivalPos="189.60" arrivalSpeed="13.38" duration="93.00" routeLength="594.90" waitingTime="41.00" waitingCount="1" stopTime="0.00" timeLoss="50.76" rerouteNo="0" devices="tripinfo_flow_W1_E1.15" vType="car" speedFactor="1.02" vaporized=""/>
    <tripinfo id="flow_W1_E1.17" depart="68.00" departLane="entry_W1_0" departPos="5.10" departSpeed="0.00" departDelay="0.00" arrival="153.00" arrivalLane="exit_E1_1" arrivalPos="189.60" arrivalSpeed="13.38" duration="85.00" routeLength="594.90" waitingTime="31.00" waitingCount="1" stopTime="0.00" timeLoss="43.10" rerouteNo="0" devices="tripinfo_flow_W1_E1.17" vType="car" speedFactor="1.03" vaporized=""/>
    <tripinfo id="flow_E2_W2.8" depart="56.00" departLane="entry_E2_0" departPos="5.10" departSpeed="0.00" departDelay="0.00" arrival="154.00" arrivalLane="exit_W2_0" arrivalPos="189.60" arrivalSpeed="12.79" duration="98.00" routeLength="594.90" waitingTime="43.00" waitingCount="1" stopTime="0.00" timeLoss="54.40" rerouteNo="0" devices="tripinfo_flow_E2_W2.8" vType="car" speedFactor="0.99" vaporized=""/>
    <tripinfo id="flow_E2_W2.10" depart="70.00" departLane="entry_E2_0" departPos="5.10" departSpeed="0.00" departDelay="0.00" arrival="156.00" arrivalLane="exit_W2_0" arrivalPos="189.60" arrivalSpeed="15.04" duration="86.00" routeLength="594.90" waitingTime="33.00" waitingCount="1" stopTime="0.00" timeLoss="45.90" rerouteNo="0" devices="tripinfo_flow_E2_W2.10" vType="car" speedFactor="1.09" vaporized=""/>
    <tripinfo id="flow_W1_E1.16" depart="64.00" departLane="entry_W1_0" departPos="5.10" departSpeed="0.00" departDelay="0.00" arrival="157.00" arrivalLane="exit_E1_0" arrivalPos="189.60" arrivalSpeed="12.42" duration="93.00" routeLength="594.90" waitingTime="34.00" waitingCount="1" stopTime="0.00" timeLoss="44.60" rerouteNo="0" devices="tripinfo_flow_W1_E1.16" vType="car" speedFactor="0.90" vaporized=""/>
    <tripinfo id="flow_W1_E1.19" depart="76.00" departLane="entry_W1_0" departPos="5.10" departSpeed="0.00" departDelay="0.00" arrival="166.00" arrivalLane="exit_E1_1" arrivalPos="189.60" arrivalSpeed="14.59" duration="90.00" routeLength="594.90" waitingTime="40.00" waitingCount="1" stopTime="0.00" timeLoss="50.12" rerouteNo="0" devices="tripinfo_flow_W1_E1.19" vType="car" speedFactor="1.09" vaporized=""/>
    <tripinfo id="flow_W1_E1.18" depart="72.00" departLane="entry_W1_0" departPos="5.10" departSpeed="0.00" departDelay="0.00" arrival="167.00" arrivalLane="exit_E1_0" arrivalPos="189.60" arrivalSpeed="13.14" duration="95.00" routeLength="594.90" waitingTime="43.00" waitingCount="1" stopTime="0.00" timeLoss="53.64" rerouteNo="0" devices="tripinfo_flow_W1_E1.18" vType="car" speedFactor="1.04" vaporized=""/>
    <tripinfo id="flow_E2_W2.11" depart="77.00" departLane="entry_E2_0" departPos="5.10" departSpeed="0.00" departDelay="0.00" arrival="169.00" arrivalLane="exit_W2_0" arrivalPos="189.60" arrivalSpeed="13.78" duration="92.00" routeLength="594.90" waitingTime="37.00" waitingCount="1" stopTime="0.00" timeLoss="48.57" rerouteNo="0" devices="tripinfo_flow_E2_W2.11" vType="car" speedFactor="1.00" vaporized=""/>
    <tripinfo id="flow_E2_W2.13" depart="91.00" departLane="entry_E2_0" departPos="5.10" departSpeed="0.00" departDelay="0.00" arrival="171.00" arrivalLane="exit_W2_0" arrivalPos="189.60" arrivalSpeed="13.03" duration="80.00" routeLength="594.90" waitingTime="24.00" waitingCount="1" stopTime="0.00" timeLoss="36.76" rerouteNo="0" devices="tripinfo_flow_E2_W2.13" vType="car" speedFactor="1.00" vaporized=""/>
    <tripinfo id="flow_E2_W2.15" depart="105.00" departLane="entry_E2_0" departPos="5.10" departSpeed="0.00" departDelay="0.00" arrival="173.00" arrivalLane="exit_W2_0" arrivalPos="189.60" arrivalSpeed="13.84" duration="68.00" routeLength="594.90" waitingTime="14.00" waitingCount="1" stopTime="0.00" timeLoss="25.02" rerouteNo="0" devices="tripinfo_flow_E2_W2.15" vType="car" speedFactor="1.02" vaporized=""/>
    <tripinfo id="flow_W1_E1.20" depart="80.00" departLane="entry_W1_0" departPos="5.10" departSpeed="0.00" departDelay="0.00" arrival="174.00" arrivalLane="exit_E1_0" arrivalPos="189.60" arrivalSpeed="11.30" duration="94.00" routeLength="594.90" waitingTime="34.00" waitingCount="1" stopTime="0.00" timeLoss="45.82" rerouteNo="0" devices="tripinfo_flow_W1_E1.20" vType="car" speedFactor="0.90" vaporized=""/>
    <tripinfo id="flow_E2_W2.12" depart="84.00" departLane="entry_E2_0" departPos="5.10" departSpeed="0.00" departDelay="0.00" arrival="174.00" arrivalLane="exit_W2_0" arrivalPos="189.60" arrivalSpeed="11.41" duration="90.00" routeLength="594.90" waitingTime="29.00" waitingCount="1" stopTime="0.00" timeLoss="39.21" rerouteNo="0" devices="tripinfo_flow_E2_W2.12" vType="car" speedFactor="0.85" vaporized=""/>
    <tripinfo id="flow_W1_E1.21" depart="84.00" departLane="entry_W1_0" departPos="5.10" departSpeed="0.00" departDelay="0.00" arrival="175.00" arrivalLane="exit_E1_1" arrivalPos="189.60" arrivalSpeed="10.66" duration="91.00" routeLength="594.90" waitingTime="30.00" waitingCount="1" stopTime="0.00" timeLoss="40.52" rerouteNo="0" devices="tripinfo_flow_W1_E1.21" vType="car" speedFactor="0.85" vaporized=""/>
    <tripinfo id="flow_W1_E1.22" depart="88.00" departLane="entry_W1_0" departPos="5.10" departSpeed="0.00" departDelay="0.00" arrival="175.00" arrivalLane="exit_E1_0" arrivalPos="189.60" arrivalSpeed="13.82" duration="87.00" routeLength="594.90" waitingTime="29.00" waitingCount="1" stopTime="0.00" timeLoss="44.86" rerouteNo="0" devices="tripinfo_flow_W1_E1.22" vType="car" speedFactor="1.02" vaporized=""/>
    <tripinfo id="flow_E2_W2.14" depart="98.00" departLane="entry_E2_0" departPos="5.10" departSpeed="0.00" departDelay="0.00" arrival="175.00" arrivalLane="exit_W2_1" arrivalPos="189.60" arrivalSpeed="13.67" duration="77.00" routeLength="594.90" waitingTime="18.00" waitingCount="1" stopTime="0.00" timeLoss="35.02" rerouteNo="0" devices="tripinfo_flow_E2_W2.14" vType="car" speedFactor="1.02" vaporized=""/>
    <tripinfo id="flow_W1_E1.23" depart="92.00" departLane="entry_W1_0" departPos="5.10" departSpeed="0.00" departDelay="0.00" arrival="177.00" arrivalLane="exit_E1_1" arrivalPos="189.60" arrivalSpeed="12.94" duration="85.00" routeLength="594.90" waitingTime="24.00" waitingCount="1" stopTime="0.00" timeLoss="41.44" rerouteNo="0" devices="tripinfo_flow_W1_E1.23" vType="car" speedFactor="1.00" vaporized=""/>
    <tripinfo id="flow_E2_W2.16" depart="112.00" departLane="entry_E2_0" departPos="5.10" departSpeed="0.00" departDelay="0.00" arrival="177.00" arrivalLane="exit_W2_1" arrivalPos="189.60" arrivalSpeed="12.29" duration="65.00" routeLength="594.90" waitingTime="4.00" waitingCount="1" stopTime="0.00" timeLoss="18.02" rerouteNo="0" devices="tripinfo_flow_E2_W2.16" vType="car" speedFactor="0.91" vaporized=""/>
    <tripinfo id="flow_E2_W2.18" depart="126.00" departLane="entry_E2_0" departPos="5.10" departSpeed="0.00" departDelay="0.00" arrival="177.00" arrivalLane="exit_W2_0" arrivalPos="189.60" arrivalSpeed="12.43" duration="51.00" routeLength="594.90" waitingTime="0.00" waitingCount="0" stopTime="0.00" timeLoss="5.27" rerouteNo="0" devices="tripinfo_flow_E2_W2.18" vType="car" speedFactor="0.96" vaporized=""/>
    <tripinfo id="flow_W1_E1.24" depart="96.00" departLane="entry_W1_0" departPos="5.10" departSpeed="0.00" departDelay="0.00" arrival="178.00" arrivalLane="exit_E1_0" arrivalPos="189.60" arrivalSpeed="12.04" duration="82.00" routeLength="594.90" waitingTime="23.00" waitingCount="1" stopTime="0.00" timeLoss="33.77" rerouteNo="0" devices="tripinfo_flow_W1_E1.24" vType="car" speedFactor="0.90" vaporized=""/>
    <tripinfo id="flow_E2_W2.19" depart="133.00" departLane="entry_E2_0" departPos="5.10" departSpeed="0.00" departDelay="0.00" arrival="178.00" arrivalLane="exit_W2_0" arrivalPos="189.60" arrivalSpeed="14.31" duration="45.00" routeLength="594.90" waitingTime="0.00" waitingCount="0" stopTime="0.00" timeLoss="5.29" rerouteNo="0" devices="tripinfo_flow_E2_W2.19" vType="car" speedFactor="1.09" vaporized=""/>
    <tripinfo id="flow_W1_E1.25" depart="100.00" departLane="entry_W1_0" departPos="5.10" departSpeed="0.00" departDelay="0.00" arrival="179.00" arrivalLane="exit_E1_1" arrivalPos="189.60" arrivalSpeed="12.91" duration="79.00" routeLength="594.90" waitingTime="18.00" waitingCount="1" stopTime="0.00" timeLoss="33.95" rerouteNo="0" devices="tripinfo_flow_W1_E1.25" vType="car" speedFactor="0.97" vaporized=""/>
    <tripinfo id="flow_E2_W2.17" depart="119.00" departLane="entry_E2_0" departPos="5.10" departSpeed="0.00" departDelay="0.00" arrival="179.00" arrivalLane="exit_W2_1" arrivalPos="189.60" arrivalSpeed="14.05" duration="60.00" routeLength="594.90" waitingTime="2.00" waitingCount="1" stopTime="0.00" timeLoss="17.59" rerouteNo="0" devices="tripinfo_flow_E2_W2.17" vType="car" speedFactor="1.02" vaporized=""/>
    <tripinfo id="flow_W1_E1.26" depart="104.00" departLane="entry_W1_0" departPos="5.10" departSpeed="0.00" departDelay="0.00" arrival="180.00" arrivalLane="exit_E1_0" arrivalPos="189.60" arrivalSpeed="14.29" duration="76.00" routeLength="594.90" waitingTime="18.00" waitingCount="1" stopTime="0.00" timeLoss="36.93" rerouteNo="0" devices="tripinfo_flow_W1_E1.26" vType="car" speedFactor="1.12" vaporized=""/>
    <tripinfo id="flow_W1_E1.27" depart="108.00" departLane="entry_W1_0" departPos="5.10" departSpeed="0.00" departDelay="0.00" arrival="180.00" arrivalLane="exit_E1_1" arrivalPos="189.60" arrivalSpeed="12.45" duration="72.00" routeLength="594.90" waitingTime="12.00" waitingCount="1" stopTime="0.00" timeLoss="28.50" rerouteNo="0" devices="tripinfo_flow_W1_E1.27" vType="car" speedFactor="0.99" vaporized=""/>
    <tripinfo id="flow_W1_E1.28" depart="112.00" departLane="entry_W1_0" departPos="5.10" departSpeed="0.00" departDelay="0.00" arrival="182.00" arrivalLane="exit_E1_0" arrivalPos="189.60" arrivalSpeed="11.96" duration="70.00" routeLength="594.90" waitingTime="10.00" waitingCount="1" stopTime="0.00" timeLoss="21.86" rerouteNo="0" devices="tripinfo_flow_W1_E1.28" vType="car" speedFactor="0.91" vaporized=""/>
    <tripinfo id="flow_W1_E1.29" depart="116.00" departLane="entry_W1_0" departPos="5.10" departSpeed="0.00" departDelay="0.00" arrival="182.00" arrivalLane="exit_E1_1" arrivalPos="189.60" arrivalSpeed="14.21" duration="66.00" routeLength="594.90" waitingTime="7.00" waitingCount="1" stopTime="0.00" timeLoss="24.31" rerouteNo="0" devices="tripinfo_flow_W1_E1.29" vType="car" speedFactor="1.04" vaporized=""/>